TITLE = "mos2d"
VARIABLES = "x", "y", "Acceptors", "AtContactNode", "BodyDoping", "ContactNSurfaceNormal_x", "ContactNSurfaceNormal_y", "ContactSurfaceArea", "Donors", "DrainDoping", "DrainDoping1", "DrainDoping2", "Interface_charge", "IntrinsicCharge", "IntrinsicCharge:Potential", "IntrinsicElectrons", "IntrinsicElectrons:Potential", "IntrinsicHoles", "IntrinsicHoles:Potential", "NSurfaceNormal_x", "NSurfaceNormal_y", "NetDoping", "NodeVolume", "Potential", "PotentialIntrinsicCharge", "PotentialIntrinsicCharge:Potential", "Potential_prev", "SourceDoping", "SourceDoping1", "SourceDoping2", "SurfaceArea", "bodynodemodel", "bodynodemodel:Potential", "coordinate_index", "drainnodemodel", "drainnodemodel:Potential", "gatenodemodel", "gatenodemodel:Potential", "node_index", "sourcenodemodel", "sourcenodemodel:Potential", "well_Doping", "EParallel", "EdgeCouple", "EdgeInverseLength", "EdgeLength", "EdgeNodeVolume", "ElectricField", "ElectricField:Potential@n0", "ElectricField:Potential@n1", "Potential@n0", "Potential@n1", "PotentialEdgeFlux", "PotentialEdgeFlux:Potential@n0", "PotentialEdgeFlux:Potential@n1", "contactcharge_edge", "contactcharge_edge:Potential@n0", "contactcharge_edge:Potential@n1", "edge_index", "mu_n", "mu_n:Potential@n0", "mu_n:Potential@n1", "mu_p", "mu_p:Potential@n0", "mu_p:Potential@n1", "unitx", "unity", "ElementEdgeCouple", "ElementNodeVolume"
ZONE T="bulk" NODES=2626, ELEMENTS=5058, DATAPACKING=BLOCK, ZONETYPE=FETRIANGLE, VARLOCATION=([68,69]=CELLCENTERED)
0 7.8e-05 7.8e-05 6.8e-05 1e-05 0 3e-06 6e-06 9e-06 1.2e-05 1.5e-05 1.8e-05 2.1e-05 2.4e-05 2.7e-05 3e-05 3.3e-05 3.6e-05 3.9e-05 4.2e-05 4.5e-05 4.8e-05 5.1e-05 5.4e-05 5.7e-05 6e-05 6.3e-05 6.6e-05 6.9e-05 7.2e-05 7.5e-05 7.8e-05 7.8e-05 7.8e-05 7.8e-05 7.8e-05 7.8e-05 7.8e-05 7.8e-05 7.8e-05 7.8e-05 7.8e-05 7.8e-05 7.8e-05 7.8e-05 7.8e-05 7.8e-05 7.8e-05 7.8e-05 7.8e-05 7.8e-05 7.8e-05 7.8e-05 7.8e-05 7.8e-05 7.8e-05 7.8e-05 7.8e-05 7.8e-05 7.8e-05 7.8e-05 7.8e-05 7.8e-05 7.8e-05 7.8e-05 7.8e-05 7.8e-05 7.8e-05 7.8e-05 7.8e-05 7.8e-05 7.8e-05 7.8e-05 7.8e-05 7.7e-05 7.6e-05 7.5e-05 7.4e-05 7.3e-05 7.2e-05 7.1e-05 7e-05 6.9e-05 6.7e-05 6.6e-05 6.5e-05 6.4e-05 6.3e-05 6.2e-05 6.1e-05 6e-05 5.9e-05 5.8e-05 5.7e-05 5.6e-05 5.5e-05 5.4e-05 5.3e-05 5.2e-05 5.1e-05 5e-05 4.9e-05 4.8e-05 4.7e-05 4.6e-05 4.5e-05 4.4e-05 4.3e-05 4.2e-05 4.1e-05 4e-05 3.9e-05 3.8e-05 3.7e-05 3.6e-05 3.5e-05 3.4e-05 3.3e-05 3.2e-05 3.1e-05 3e-05 2.9e-05 2.8e-05 2.7e-05 2.6e-05 2.5e-05 2.4e-05 2.3e-05 2.2e-05 2.1e-05 2e-05 1.9e-05 1.8e-05 1.7e-05 1.6e-05 1.5e-05 1.4e-05 1.3e-05 1.2e-05 1.1e-05 9e-06 8e-06 7e-06 6e-06 5e-06 4e-06 3e-06 2e-06 1e-06 0 0 0 0 0 0 0 0 0 0 0 0 0 0 0 0 0 0 0 0 0 0 0 0 0 0 0 0 0 0 0 0 0 0 0 0 0 0 0 0 0 0 0 3.95201e-05 3.25e-05 4.65574e-05 1.70448e-06 7.64299e-05 2.54219e-05 5.25429e-05 1.59726e-06 7.66244e-05 1.95398e-05 5.94705e-05 1.29134e-06 7.69113e-05 4.04264e-05 7.59517e-05 1.44984e-05 1.79364e-06 6.46437e-05 1.13843e-06 7.69107e-05 2.8469e-05 1.05e-05 5.28034e-05 6.85384e-05 7.60016e-05 2.39121e-06 1.03023e-06 7.70073e-05 1.6097e-06 7.64009e-05 7.56048e-05 6.37111e-06 1.96952e-05 7.15171e-05 5.55625e-05 2.26525e-05 2.83639e-05 4.96053e-05 4.35794e-05 3.55211e-05 6.15634e-05 2.34645e-06 9.20375e-07 7.70682e-05 1.05231e-05 3.60866e-06 7.4492e-05 1.66507e-06 7.62344e-05 1.35327e-06 7.66682e-05 1.27752e-06 2.02168e-06 7.67658e-05 7.60941e-05 1.11515e-06 7.68826e-05 7.52102e-05 6.76684e-05 4.6678e-05 3.41844e-05 8.53052e-06 1.74192e-05 6.24559e-05 6.63967e-05 1.24814e-05 5.74979e-05 3.04839e-05 3.74341e-05 4.15708e-05 2.32284e-06 7.86396e-07 7.70907e-05 7.33715e-05 4.5219e-06 1.57679e-06 7.65e-05 1.69901e-06 3.3717e-06 3.37838e-06 5.02785e-06 5.04466e-06 6.67111e-06 6.70126e-06 8.25851e-06 8.31694e-06 9.85125e-06 9.88183e-06 1.14285e-05 1.14547e-05 1.2987e-05 1.30272e-05 1.45591e-05 1.44309e-05 1.60977e-05 1.62293e-05 1.77342e-05 1.76843e-05 1.92454e-05 1.93052e-05 2.07889e-05 2.08073e-05 2.23349e-05 2.22975e-05 2.38587e-05 2.39082e-05 2.54427e-05 2.55036e-05 2.70369e-05 2.69426e-05 2.85589e-05 2.86404e-05 3.01649e-05 3.01208e-05 3.17026e-05 3.17916e-05 3.32959e-05 3.32068e-05 3.47933e-05 3.49042e-05 3.64105e-05 3.65352e-05 3.80458e-05 3.79246e-05 3.94831e-05 3.95595e-05 3.94175e-05 4.08977e-05 4.08759e-05 4.23969e-05 4.23479e-05 4.3888e-05 4.3776e-05 4.22503e-05 4.53099e-05 4.51912e-05 4.6665e-05 4.68601e-05 4.6598e-05 4.8035e-05 4.79753e-05 4.94322e-05 4.93106e-05 4.78854e-05 4.92033e-05 4.77993e-05 5.0619e-05 5.05129e-05 5.19031e-05 5.17875e-05 5.3168e-05 5.30511e-05 5.44128e-05 5.45868e-05 5.42988e-05 5.29601e-05 5.56418e-05 5.55296e-05 5.6854e-05 5.67434e-05 5.80495e-05 5.79403e-05 5.91572e-05 5.93056e-05 5.91134e-05 5.78683e-05 6.04353e-05 6.02893e-05 8.43088e-06 6.15433e-05 6.14377e-05 6.26708e-05 6.25596e-05 6.1354e-05 6.24674e-05 6.36486e-05 6.12319e-05 6.27866e-05 6.35615e-05 6.47213e-05 6.46156e-05 6.57738e-05 6.56722e-05 6.45477e-05 6.68101e-05 6.69118e-05 1.14862e-05 6.67138e-05 6.78366e-05 6.77395e-05 6.885e-05 6.87423e-05 6.76578e-05 6.86435e-05 6.97155e-05 6.75871e-05 6.9614e-05 7.06717e-05 7.05731e-05 7.162e-05 7.17207e-05 3.90128e-05 5.02192e-05 5.54595e-05 8.11095e-06 4.5137e-05 1.2909e-05 1.1521e-05 1.28831e-05 1.15483e-05 1.2892e-05 1.15756e-05 1.29456e-05 1.16009e-05 1.28955e-05 1.16263e-05 1.29748e-05 1.4374e-05 1.4328e-05 1.56158e-05 1.56208e-05 1.69067e-05 1.68987e-05 1.81841e-05 1.5634e-05 1.81734e-05 1.9422e-05 1.94404e-05 2.06767e-05 2.06807e-05 2.19002e-05 2.1927e-05 2.31257e-05 2.3153e-05 2.43292e-05 2.07912e-05 2.43439e-05 2.55254e-05 2.55006e-05 2.6683e-05 2.67127e-05 2.78905e-05 2.78694e-05 2.90648e-05 2.90891e-05 3.02614e-05 3.02096e-05 3.14162e-05 2.43534e-05 3.1382e-05 3.25674e-05 3.26077e-05 3.37548e-05 3.37225e-05 3.48949e-05 3.48558e-05 3.60196e-05 2.30185e-05 3.60687e-05 3.71946e-05 3.71352e-05 3.8304e-05 3.82558e-05 3.94014e-05 1.16642e-05 3.72599e-05 3.93449e-05 4.0492e-05 3.82167e-05 4.05492e-05 4.16339e-05 4.15724e-05 4.27094e-05 4.26402e-05 4.3776e-05 4.38454e-05 4.49056e-05 4.48322e-05 4.59566e-05 4.58711e-05 4.69935e-05 4.70804e-05 4.81147e-05 4.80241e-05 4.91398e-05 1.93514e-05 4.90371e-05 5.0146e-05 5.02279e-05 5.12574e-05 5.11573e-05 5.22468e-05 5.21456e-05 5.32261e-05 1.03339e-05 1.03668e-05 5.23579e-05 5.31334e-05 5.42065e-05 1.02135e-05 5.19696e-05 9.01887e-06 9.06819e-06 1.03683e-05 9.09984e-06 1.03478e-05 9.05321e-06 1.03319e-05 9.11758e-06 1.03544e-05 9.20195e-06 1.03504e-05 9.22525e-06 1.03496e-05 9.26045e-06 1.03554e-05 1.14412e-05 1.14437e-05 1.25187e-05 9.26019e-06 1.25204e-05 1.35835e-05 1.35849e-05 1.46288e-05 1.46422e-05 1.5665e-05 1.4631e-05 1.25062e-05 1.56885e-05 1.67011e-05 8.18917e-06 8.19424e-06 1.66975e-05 1.7723e-05 1.77139e-05 1.87596e-05 1.87586e-05 1.97937e-05 1.97907e-05 2.08157e-05 2.08033e-05 2.18253e-05 8.01701e-06 7.13405e-06 7.16017e-06 8.21777e-06 7.19367e-06 8.21479e-06 5.41039e-05 5.51675e-05 5.52792e-05 5.62401e-05 5.63529e-05 5.73145e-05 5.72016e-05 5.82663e-05 7.79596e-06 1.98073e-05 1.87372e-05 1.57043e-05 2.18256e-05 2.28241e-05 2.28747e-05 2.38475e-05 2.38221e-05 2.48407e-05 2.487e-05 2.58667e-05 2.58967e-05 2.6899e-05 2.68833e-05 2.79089e-05 2.79385e-05 2.89379e-05 2.89021e-05 2.99274e-05 5.81552e-05 5.92105e-05 7.2225e-06 6.20517e-06 1.16684e-05 2.98791e-05 3.09005e-05 3.09541e-05 3.19308e-05 5.71149e-05 1.8186e-05 3.18943e-05 3.29137e-05 3.2966e-05 3.39359e-05 1.97645e-05 3.38779e-05 3.48957e-05 4.14966e-05 4.47796e-05 4.7945e-05 6.23855e-06 4.82161e-05 4.17048e-05 3.02915e-05 1.4435e-05 8.22976e-06 4.49623e-05 3.37956e-05 6.48347e-05 5.70815e-05 5.20357e-05 4.41269e-05 2.37936e-05 2.22553e-05 2.37219e-05 2.22308e-05 2.36708e-05 2.50933e-05 2.50872e-05 2.648e-05 2.64859e-05 2.79087e-05 2.786e-05 2.92778e-05 2.92286e-05 3.06434e-05 1.69159e-05 1.15149e-05 5.01857e-06 1.66918e-05 6.89556e-05 4.92372e-05 6.95355e-05 2.90998e-05 3.03307e-05 3.50005e-05 3.65714e-05 3.50822e-05 3.66986e-05 3.51768e-05 3.69465e-05 3.53782e-05 3.71332e-05 3.51744e-05 3.72321e-05 3.55122e-05 3.73952e-05 3.91584e-05 3.93111e-05 4.11587e-05 4.1259e-05 4.31269e-05 3.5619e-05 4.32199e-05 4.50469e-05 3.37035e-05 3.38151e-05 3.19193e-05 4.51891e-05 4.70335e-05 4.32818e-05 3.19907e-05 2.99586e-05 4.71852e-05 4.90506e-05 3.01179e-05 2.80549e-05 4.92103e-05 5.10747e-05 5.09281e-05 5.28856e-05 5.27682e-05 5.33293e-05 2.82296e-05 3.02786e-05 2.61911e-05 2.6318e-05 5.46945e-05 5.457e-05 2.42629e-05 2.43895e-05 5.65165e-05 5.63555e-05 2.23252e-05 2.21866e-05 2.24383e-05 5.82936e-05 5.81148e-05 5.84729e-05 5.62193e-05 5.79529e-05 2.45937e-05 5.98092e-05 5.95139e-05 2.02676e-05 2.01374e-05 5.76886e-05 5.93491e-05 6.12922e-05 6.09678e-05 4.50433e-05 5.90359e-05 6.07762e-05 2.2535e-05 6.25885e-05 6.23732e-05 6.06574e-05 6.23e-05 1.82676e-05 1.81614e-05 2.00187e-05 2.47848e-05 6.38488e-05 6.37695e-05 6.21579e-05 6.36141e-05 3.03211e-05 1.80245e-05 6.51975e-05 6.50232e-05 1.62004e-05 1.98003e-05 2.2681e-05 2.04574e-05 6.34689e-05 6.48638e-05 6.63707e-05 6.62353e-05 2.49137e-05 1.60726e-05 2.06137e-05 1.83415e-05 1.42625e-05 1.84946e-05 1.61903e-05 6.33382e-05 6.77152e-05 6.75822e-05 3.38364e-05 2.70429e-05 2.71856e-05 2.92889e-05 2.94598e-05 3.15958e-05 1.41921e-05 1.23725e-05 1.24382e-05 1.62998e-05 1.4004e-05 1.39026e-05 6.89865e-05 6.88803e-05 6.7434e-05 6.87181e-05 6.92607e-05 6.73013e-05 6.85688e-05 2.73853e-05 5.26308e-05 1.5982e-05 3.17727e-05 3.39243e-05 3.3749e-05 3.60545e-05 3.58912e-05 3.81578e-05 3.8359e-05 4.04721e-05 4.06801e-05 4.28257e-05 6.02496e-05 6.04339e-05 6.22447e-05 6.24157e-05 6.4245e-05 6.44204e-05 6.25733e-05 6.46212e-05 6.27305e-05 6.48099e-05 6.2889e-05 6.49354e-05 6.3011e-05 6.08726e-05 6.09732e-05 6.28184e-05 5.88005e-05 5.89927e-05 5.66901e-05 5.68371e-05 5.4527e-05 5.48083e-05 6.62382e-05 6.60606e-05 4.09102e-05 5.72938e-05 6.19507e-05 6.18144e-05 6.0459e-05 6.99694e-05 6.98085e-05 6.8431e-05 6.96413e-05 3.8712e-05 4.3025e-05 2.39555e-05 2.55884e-05 2.39894e-05 2.56753e-05 3.93949e-05 6.10886e-06 6.06749e-06 2.78565e-05 2.48049e-05 4.74014e-05 3.85606e-05 2.88701e-05 1.86543e-05 5.91143e-05 6.01491e-05 6.02639e-05 6.11921e-05 3.39374e-05 6.83745e-05 6.95026e-05 7.08002e-05 7.06553e-05 2.89844e-05 1.4118e-05 1.58493e-05 6.66711e-05 7.26639e-05 7.25582e-05 7.27785e-05 2.51601e-05 2.40436e-05 2.23621e-05 1.17746e-05 1.16295e-05 1.18125e-05 6.10726e-05 6.21107e-05 3.40056e-05 3.30167e-05 1.05249e-05 1.05866e-05 7.04061e-05 6.70998e-05 1.05066e-05 5.74241e-05 5.64537e-05 2.79753e-05 5.24128e-06 2.57412e-05 1.6411e-05 4.94026e-05 5.25943e-06 2.49743e-05 3.08485e-05 3.20516e-05 3.19916e-05 3.33781e-05 3.32991e-05 3.4701e-05 3.46017e-05 3.59907e-05 3.35731e-05 3.59127e-05 3.72758e-05 3.73593e-05 3.86441e-05 3.85588e-05 3.99154e-05 3.98306e-05 4.11688e-05 4.10848e-05 4.24051e-05 2.22136e-05 2.07834e-05 3.48251e-05 3.58392e-05 3.59275e-05 3.68665e-05 1.57151e-05 1.98141e-05 1.8734e-05 3.79624e-05 2.38118e-05 5.2462e-05 5.24916e-05 6.80362e-05 6.78315e-05 7.12018e-05 3.67398e-05 3.777e-05 3.7889e-05 3.87874e-05 4.75394e-05 4.23678e-05 4.36323e-05 6.03344e-05 6.16525e-05 5.90037e-05 5.91e-05 5.76263e-05 5.77307e-05 5.62146e-05 5.63464e-05 7.04932e-05 7.1942e-05 7.17755e-05 7.05155e-05 7.16202e-05 8.64256e-06 3.86666e-05 3.97551e-05 4.35706e-05 4.4834e-05 2.98266e-05 5.75542e-05 5.65404e-05 1.3764e-05 1.15998e-05 3.38235e-05 5.06264e-06 4.92966e-06 9.21066e-06 9.1959e-06 6.13223e-05 4.12695e-05 1.01674e-05 6.83596e-05 6.59368e-05 6.76674e-05 6.9561e-05 6.93513e-05 6.74995e-05 6.91479e-05 6.0707e-05 5.77173e-05 2.58965e-05 6.19804e-05 6.30113e-05 6.31446e-05 6.40405e-05 8.15952e-06 1.47324e-05 4.8932e-05 4.7876e-05 4.88334e-05 4.78038e-05 4.87472e-05 4.77315e-05 4.67443e-05 3.46732e-05 4.11569e-05 7.35973e-05 7.34978e-05 5.48042e-05 5.49388e-05 2.42002e-05 2.7399e-05 1.47397e-05 1.66872e-05 1.02018e-05 1.37738e-05 3.97175e-05 4.07317e-05 4.06831e-05 4.16968e-05 4.17298e-05 4.27127e-05 4.26163e-05 4.3716e-05 2.90408e-05 2.56426e-05 3.87329e-05 9.01358e-06 7.67236e-06 7.67882e-06 6.35166e-06 6.33983e-06 6.94686e-05 1.40292e-05 1.57436e-05 9.59685e-06 1.25284e-05 6.09642e-05 5.66573e-05 6.3911e-05 6.49305e-05 2.47719e-05 4.66766e-05 2.74742e-05 2.0885e-05 2.08987e-05 6.9957e-05 6.65751e-05 6.03742e-05 2.07646e-05 2.88018e-05 1.25443e-05 3.74214e-05 8.60951e-06 5.66034e-05 6.73228e-05 6.89812e-05 1.93659e-05 4.96503e-05 2.20095e-05 1.87824e-05 1.65185e-05 7.28711e-05 7.26716e-05 1.75397e-05 4.28229e-06 4.247e-06 4.3167e-06 1.74315e-05 4.76386e-05 6.14298e-05 3.40565e-05 3.30746e-05 5.54928e-05 5.56024e-05 5.44256e-05 5.45212e-05 5.33403e-05 5.3437e-05 5.22432e-05 4.47956e-05 4.60212e-05 7.07667e-05 7.05621e-05 6.88224e-05 7.03644e-05 3.84415e-05 3.5741e-05 3.77892e-05 3.99772e-05 4.75887e-05 6.86561e-05 7.01894e-05 7.18761e-05 7.1676e-05 3.45793e-05 5.33823e-05 5.35074e-05 5.51033e-05 5.37072e-05 5.20378e-05 5.21691e-05 5.05139e-05 5.06502e-05 4.89593e-05 4.91151e-05 4.74096e-05 4.75638e-05 5.07576e-05 4.58351e-05 4.60113e-05 4.77779e-05 5.38144e-05 4.42192e-05 6.59104e-05 1.83014e-05 1.16192e-05 1.37891e-05 7.00861e-05 7.10632e-05 6.02098e-05 6.1493e-05 2.38039e-05 4.36354e-05 7.12519e-05 5.2329e-05 5.11665e-05 5.12495e-05 5.00488e-05 1.06135e-05 8.67029e-06 8.68811e-06 4.54491e-05 4.53889e-05 4.31977e-05 3.47509e-05 2.79633e-05 5.27224e-06 4.37518e-05 7.00303e-05 7.14825e-05 4.45475e-05 6.7745e-06 3.3122e-05 4.58773e-05 5.61182e-05 5.00979e-05 6.4794e-05 6.58199e-05 4.56202e-05 7.03692e-05 4.35167e-05 2.80009e-05 4.41062e-05 4.63274e-05 2.9111e-05 3.03736e-05 6.04003e-06 4.92015e-06 3.8791e-05 3.74424e-05 4.06024e-05 3.37633e-05 1.56653e-05 2.97728e-05 2.90959e-05 6.04865e-05 5.78241e-05 7.14745e-05 5.32844e-05 5.03352e-05 6.37569e-05 6.56736e-05 1.76403e-05 1.76241e-05 1.87349e-05 1.76036e-05 1.6489e-05 1.64815e-05 1.53424e-05 1.53124e-05 1.01882e-05 5.04928e-06 5.03577e-06 5.04893e-06 6.34145e-06 4.97024e-06 6.33019e-06 2.10351e-05 2.11929e-05 5.09176e-05 4.89871e-06 6.24758e-06 4.83591e-06 1.24881e-05 3.98473e-06 6.42507e-05 4.2522e-05 1.28275e-05 2.90752e-05 3.01236e-05 4.95972e-06 6.71094e-05 4.24907e-05 7.4518e-05 7.44031e-05 7.34073e-05 7.46317e-05 7.39291e-05 7.36414e-05 6.62698e-06 6.66078e-06 3.23645e-06 3.20456e-06 3.45266e-05 1.47603e-05 7.31822e-05 4.72237e-05 4.97712e-05 4.9686e-05 1.11605e-05 5.78336e-05 6.69572e-06 8.57283e-06 2.18115e-05 2.15468e-05 2.35447e-05 5.06919e-05 5.06006e-05 5.15991e-05 5.15071e-05 5.24919e-05 4.5427e-05 7.03647e-05 7.42988e-05 7.33149e-05 7.41288e-05 2.91448e-05 2.92406e-05 2.75283e-05 2.43941e-05 2.53857e-05 6.93821e-05 6.84844e-05 1.76595e-05 1.76549e-05 3.16382e-05 2.20535e-05 4.95975e-05 2.23561e-05 1.66972e-05 4.17834e-05 4.3373e-05 2.47461e-05 2.57012e-05 6.00864e-05 6.13673e-05 6.27467e-05 6.26113e-05 5.87962e-05 6.40676e-05 6.40168e-05 1.00137e-05 6.18593e-05 6.08615e-05 4.57809e-05 4.256e-05 4.13907e-05 3.9281e-05 3.81661e-05 3.71167e-05 3.58099e-05 1.86514e-05 1.8614e-05 1.93964e-05 7.2345e-05 4.64908e-05 4.34347e-06 3.39471e-06 3.97923e-05 2.28483e-05 2.78301e-05 2.76791e-05 6.9274e-05 1.28451e-05 3.28023e-05 5.50569e-05 2.28451e-05 5.99733e-05 2.19096e-05 1.93597e-05 1.79612e-05 1.7971e-05 6.21894e-05 4.88943e-05 4.89785e-05 4.88047e-05 7.33537e-05 6.39229e-05 7.13715e-05 7.25935e-05 7.28088e-05 7.24202e-05 7.3803e-05 7.36356e-05 7.25675e-05 4.98937e-05 1.41794e-05 1.4161e-05 1.82271e-05 6.56645e-05 4.66527e-05 4.75553e-05 6.83736e-06 2.90188e-05 3.76413e-05 3.50031e-05 4.01444e-05 6.55665e-05 4.57468e-05 4.58097e-05 6.82464e-05 7.00194e-05 7.02668e-05 5.15233e-05 3.41088e-05 3.19129e-05 3.43067e-05 3.20549e-05 1.41015e-05 1.4211e-05 1.1864e-05 3.92087e-05 2.78854e-05 2.78701e-05 2.66227e-05 4.45844e-05 6.23566e-05 3.3505e-05 4.71707e-05 3.61172e-05 7.52736e-05 2.1192e-06 2.91736e-05 3.74143e-05 6.91384e-05 6.81299e-05 4.09764e-05 7.20955e-05 7.22867e-05 3.85022e-05 2.09098e-05 4.64093e-05 4.76579e-05 5.8736e-05 5.39499e-05 5.49166e-05 4.78488e-05 4.80812e-05 2.66074e-05 4.51082e-05 5.87315e-05 6.15452e-05 3.20415e-05 3.80367e-06 3.81335e-06 5.07957e-06 3.83768e-06 5.13531e-06 3.84803e-06 5.11795e-06 3.90659e-06 5.13512e-06 3.95465e-06 6.32386e-06 5.94016e-06 1.73916e-05 4.58052e-05 6.59592e-05 5.29026e-06 6.21054e-06 1.9184e-05 7.12252e-05 7.21845e-05 7.51784e-05 2.19202e-05 7.04835e-05 3.07483e-05 3.07042e-05 7.23853e-05 7.02623e-05 3.4315e-05 3.41592e-05 3.31858e-05 5.55812e-05 1.93313e-05 2.34022e-05 2.3507e-05 3.46746e-05 3.56498e-05 4.46602e-05 3.27914e-05 1.2309e-05 1.22296e-05 3.60778e-05 1.37762e-05 2.53645e-05 2.53331e-05 2.40734e-05 2.97376e-05 1.86193e-05 2.40475e-05 2.27303e-05 3.70699e-05 3.68583e-06 4.47881e-05 4.38284e-05 2.56383e-06 2.6066e-05 6.01838e-05 5.09359e-05 2.20465e-05 7.35645e-05 5.43644e-05 6.70038e-05 7.53085e-06 5.18488e-05 3.45487e-05 6.40397e-05 6.51944e-05 6.24773e-05 2.42936e-05 3.17924e-05 2.80136e-05 3.0716e-05 8.97602e-06 6.83902e-05 6.74969e-05 6.75685e-05 4.2104e-06 3.18763e-06 7.18313e-05 7.29092e-05 7.38501e-05 7.39906e-05 7.49195e-05 6.99048e-05 7.13526e-05 7.29048e-05 7.27364e-05 7.42511e-05 6.84267e-05 7.24775e-05 7.06562e-05 7.55104e-05 7.41071e-05 1.95144e-05 7.25948e-05 7.39209e-05 1.54595e-05 1.41227e-05 3.26491e-05 4.9797e-06 5.15925e-06 5.00759e-06 6.2993e-06 4.78634e-06 5.35911e-05 1.19251e-05 1.19283e-05 2.19583e-05 5.00425e-05 7.50393e-05 7.42081e-05 7.52204e-05 2.97587e-05 6.53093e-05 2.56985e-05 3.04732e-05 3.30758e-05 3.16068e-05 5.23856e-05 5.33707e-05 5.14046e-05 1.4335e-05 1.31398e-05 1.35645e-05 1.6594e-05 4.33891e-05 5.94353e-05 2.31592e-05 4.5977e-05 7.04703e-06 2.54253e-05 4.39117e-05 1.45758e-05 3.05323e-05 4.24567e-05 3.61121e-05 7.4976e-05 5.03345e-05 5.05864e-05 5.28091e-05 5.99003e-05 5.90067e-05 6.09196e-05 1.41527e-05 5.02674e-05 1.85523e-05 7.50445e-05 3.39836e-06 7.22731e-05 7.57181e-05 2.48727e-06 2.44474e-06 1.57792e-05 1.39775e-05 3.9909e-05 4.15992e-05 4.39374e-05 4.18597e-05 4.21667e-05 2.09335e-05 7.40442e-05 2.12698e-05 2.37798e-05 7.31735e-05 3.01788e-05 8.97165e-06 6.97832e-06 6.74845e-05 6.8236e-05 3.6676e-05 3.7014e-05 7.26431e-05 7.08344e-05 7.28084e-05 7.10074e-05 6.88657e-05 6.89982e-05 7.12322e-05 6.91831e-05 7.16861e-05 6.93414e-05 6.70037e-05 6.72055e-05 6.47882e-05 6.9711e-05 6.49972e-05 6.2546e-05 6.2351e-05 6.2756e-05 6.02943e-05 6.49289e-05 3.3491e-06 4.23487e-05 4.15437e-05 2.92803e-05 2.71453e-05 3.10188e-05 2.55691e-05 3.12213e-05 2.48123e-05 4.91458e-05 3.38079e-06 3.18429e-06 2.0974e-05 2.09922e-05 2.09578e-05 4.07301e-05 6.51591e-05 3.60377e-05 5.00886e-06 3.95713e-05 3.7588e-05 4.10842e-05 7.49934e-05 7.47304e-05 2.48158e-06 4.82867e-05 4.9286e-05 3.76538e-05 1.29275e-05 5.26229e-05 1.66405e-05 1.66583e-05 1.79863e-05 1.66057e-05 3.87397e-05 3.61477e-05 6.35315e-05 6.3954e-05 4.35469e-05 5.31898e-05 5.42177e-05 4.24801e-05 6.5494e-05 7.34993e-05 6.6943e-05 6.38335e-06 5.00714e-05 5.89766e-05 5.80554e-05 5.80935e-05 5.71518e-05 5.70806e-05 5.61891e-05 5.63273e-05 6.06004e-05 1.08819e-05 5.41186e-05 2.59648e-05 7.23584e-05 6.43565e-05 4.45692e-06 1.12763e-05 1.0204e-05 4.42929e-05 4.41675e-05 2.48952e-06 2.82694e-06 5.30492e-05 5.53864e-05 5.54563e-05 5.52919e-05 3.96641e-06 3.00554e-06 6.0306e-05 7.45643e-05 7.57614e-05 5.85897e-05 5.73064e-05 5.74899e-05 4.81938e-05 2.66482e-05 2.66176e-05 2.67225e-05 4.71219e-05 4.61796e-06 7.16703e-06 4.87356e-06 7.66004e-05 5.08369e-05 7.6096e-05 6.28732e-06 2.44236e-06 4.82158e-06 3.17579e-05 3.1703e-05 1.19277e-05 2.30725e-05 3.07906e-05 3.28638e-05 2.38025e-05 6.63365e-05 6.63073e-05 7.13152e-05 1.09793e-05 9.95669e-06 1.29269e-05 4.78234e-05 3.30961e-05 4.09204e-05 4.07134e-05 3.55747e-05 3.65259e-05 3.46074e-05 3.64745e-05 2.28252e-05 6.90664e-05 4.23568e-05 1.47189e-05 7.14519e-05 7.34087e-05 1.87211e-05 1.51498e-05 5.43046e-05 1.04211e-05 1.04084e-05 5.60244e-05 2.55596e-05 3.56862e-05 1.52888e-05 6.37721e-05 6.38562e-06 7.23844e-05 3.927e-05 4.04641e-05 1.21696e-05 1.14516e-05 4.18397e-05 4.30173e-05 6.23762e-05 4.94722e-05 2.6952e-05 2.69379e-05 1.57964e-05 4.03313e-05 4.02423e-05 3.9347e-05 4.12521e-05 2.80077e-05 2.34345e-05 6.22775e-06 7.12473e-06 5.37531e-06 7.16875e-06 3.73769e-05 3.74738e-05 3.82285e-05 4.85836e-05 4.84775e-05 6.57552e-05 6.45299e-05 1.22308e-05 1.05175e-05 3.59131e-05 3.60466e-05 7.44203e-05 2.31773e-05 7.51483e-05 7.47429e-05 7.41147e-05 2.0899e-05 4.37138e-05 4.7971e-05 4.76271e-05 5.22118e-05 5.23314e-05 5.38347e-05 4.68667e-05 3.15095e-05 3.00376e-05 7.65562e-06 1.65722e-05 2.27418e-05 2.14087e-05 2.1557e-05 1.14269e-05 5.60126e-05 8.06346e-06 9.06606e-06 8.03136e-06 7.79426e-06 1.52883e-05 2.12457e-05 1.94988e-05 1.03158e-05 7.58384e-05 2.40517e-05 6.41375e-05 7.48118e-05 6.18955e-05 3.71955e-05 3.71742e-05 7.20371e-06 6.28762e-05 6.27662e-05 6.36189e-05 6.46161e-05 6.55572e-05 2.68418e-05 3.84297e-05 3.93873e-05 4.75327e-05 6.49411e-06 4.56574e-05 4.53361e-05 4.71119e-05 4.87596e-05 4.86832e-05 5.03123e-05 2.75626e-05 2.86036e-05 2.74452e-05 7.22079e-05 1.95206e-05 1.84453e-05 1.69932e-05 5.43921e-05 5.25169e-05 5.07514e-05 5.06297e-05 5.23288e-05 4.88875e-05 4.90002e-05 5.05905e-05 4.70846e-05 4.69185e-05 5.22058e-05 5.39715e-05 5.38504e-05 5.55917e-05 5.54563e-05 4.52719e-05 4.32663e-05 4.22506e-05 5.72514e-05 5.69291e-05 5.89659e-05 5.91375e-05 5.74943e-05 5.5496e-05 4.69788e-05 4.89768e-05 5.60314e-05 2.65436e-05 1.76723e-05 1.68113e-05 1.57503e-05 1.57292e-05 3.96131e-05 1.38318e-05 1.48437e-05 4.07847e-05 4.37281e-05 4.34913e-05 5.16659e-05 2.31906e-05 5.42389e-05 5.28743e-05 5.66763e-05 5.52665e-05 5.05264e-05 5.03031e-05 4.94415e-05 5.14014e-05 5.29455e-05 3.1824e-05 1.37114e-05 1.61211e-05 4.24006e-05 6.68171e-06 8.58472e-06 3.32216e-05 5.90556e-05 5.78761e-05 6.55879e-05 6.44718e-05 6.34916e-05 6.55455e-05 6.3533e-05 6.24828e-05 2.08266e-05 1.93376e-05 1.80248e-05 5.42888e-05 1.80453e-06 7.0217e-05 2.2505e-05 7.28356e-05 6.85733e-05 6.1857e-05 7.52509e-05 7.4153e-05 2.08434e-05 2.07938e-05 4.2579e-06 5.00236e-05 5.10012e-05 1.72102e-06 5.31542e-06 3.82058e-05 3.70258e-05 3.36655e-05 3.3536e-05 7.37191e-05 4.17359e-05 4.38704e-05 1.46386e-05 2.54493e-05 2.69845e-05 1.90541e-05 1.90951e-05 2.07453e-05 3.3625e-05 3.35416e-05 3.14216e-05 3.13873e-05 2.91883e-05 2.68558e-05 4.86024e-05 1.87385e-05 6.31676e-05 3.29549e-06 4.51858e-05 4.37167e-05 1.43704e-05 1.30362e-05 1.31082e-05 3.77685e-05 2.37826e-05 2.36788e-05 2.3747e-05 3.66179e-06 6.13299e-05 6.11152e-05 5.98881e-05 4.91158e-05 7.10142e-05 6.91994e-05 7.0098e-05 7.68216e-06 4.49516e-05 6.73528e-05 7.51342e-06 9.37058e-06 5.96663e-06 7.21878e-06 7.05283e-05 7.20481e-05 7.52207e-05 7.35569e-05 6.92477e-05 1.35472e-06 7.66435e-05 1.28187e-06 4.57296e-05 4.58324e-05 3.00963e-05 2.83827e-05 2.69254e-05 2.84745e-05 1.06233e-06 1.38799e-05 7.58211e-05 6.47176e-05 6.06884e-05 6.06267e-05 3.13802e-05 4.95252e-05 3.72126e-05 5.45513e-05 2.07549e-06 2.17797e-06 1.13949e-06 2.17201e-06 2.27764e-06 1.06415e-06 2.06615e-06 1.04652e-05 5.62135e-05 5.47073e-05 6.82588e-05 6.60755e-05 1.14289e-05 5.81307e-05 7.10133e-05 1.06549e-06 3.63833e-06 6.50526e-05 6.60857e-05 4.2386e-05 1.54782e-05 4.8664e-05 5.4682e-05 5.31457e-05 5.47131e-05 4.37267e-05 5.60997e-05 7.53516e-05 1.69886e-06 5.87593e-05 5.64642e-05 5.48946e-05 5.70328e-05 5.5668e-05 4.46481e-05 6.00343e-05 4.04362e-05 6.4672e-05 6.53368e-05 1.98148e-05 1.1736e-05 5.61323e-05 6.98392e-05 3.57341e-05 3.62746e-05 2.53368e-05 5.21797e-05 5.10271e-05 5.33477e-05 2.5829e-05 6.55493e-05 9.87222e-06 8.53091e-06 3.08455e-05 1.33718e-06 2.56117e-06 1.69431e-05 1.26994e-06 3.89514e-05 2.28408e-05 6.16949e-06 2.72554e-05 9.6477e-06 4.69122e-05 4.16102e-05 4.06088e-05 4.04645e-05 3.95885e-05 1.68032e-06 7.63329e-05 7.66458e-05 7.51606e-05 7.66249e-05 1.29643e-06 7.65014e-05 1.16257e-06 2.55924e-06 1.8543e-06 7.69524e-05 6.00625e-05 2.24796e-06 4.25025e-06 7.69453e-05 7.57939e-05 1.5725e-05 7.61282e-05 7.60801e-05 2.33843e-06 4.63829e-06 2.03167e-05 2.78727e-05 5.87207e-05 6.47186e-05 7.57474e-05 7.33753e-05 2.2911e-05 6.02124e-05 5.90298e-05 5.89247e-05 1.65725e-05 1.55296e-06 7.7078e-05 6.66366e-05 6.54119e-05 1.39793e-05 1.01362e-05 2.54165e-05 2.07871e-05 2.32025e-05 1.65715e-05 1.66375e-05 3.56442e-05 3.3402e-05 6.01881e-05 5.997e-05 6.25947e-05 5.5414e-05 5.43069e-05 6.2069e-05 1.15997e-05 6.85674e-05 6.7179e-05 2.90373e-05 3.60102e-05 7.15273e-05 3.25225e-05 7.24713e-05 2.46135e-06 3.28559e-05 3.12756e-05 5.78981e-05 4.74896e-06 6.90712e-06 7.20288e-06 7.14192e-05 3.08247e-05 1.30173e-05 1.78254e-05 3.44415e-05 3.83764e-05 2.08426e-05 4.62054e-06 8.68053e-06 4.66526e-05 5.1904e-05 4.13747e-05 2.29582e-05 3.03022e-05 4.86477e-05 1.59764e-05 6.64431e-05 3.00451e-05 5.15866e-05 4.51938e-05 7.6149e-06 2.61384e-06 7.54987e-05 7.60753e-05 2.20012e-05 7.5e-06 9.12569e-06 7.25318e-05 6.74999e-05 1.15e-05 7.11025e-05 2.05053e-05 1.8507e-05 6.35418e-05 1.34717e-05 2.15e-05 6.14792e-05 2.65e-05 5.84908e-05 2.94495e-05 4.54775e-05 3.14115e-05 4.45e-05 4.25656e-05 3.84546e-05 4.0623e-05 7.30911e-05 3.33176e-06 6.97703e-05 6.37637e-05 5.0742e-05 6.87658e-05 4.0187e-05 6.98712e-06 7.37093e-05 7.01454e-05 7.31222e-05 7.20719e-05 7.09786e-05 6.29911e-05 7.40153e-05 6.22334e-05 4.98743e-05 3.87792e-05 2.20014e-05 1.47092e-05 4.91981e-05 6.58795e-05 3.49543e-05 2.57785e-05 5.81669e-05 4.00085e-05 5.34679e-05 5.58423e-05 5.16944e-05 5.32984e-05 3.93128e-05 4.55231e-05 2.99745e-05 1.77052e-05 6.21459e-06 4.4987e-05 4.24848e-05 3.71302e-05 6.80559e-05 3.16562e-05 1.14181e-05 4.62364e-06 1.2788e-05 2.94076e-05 1.23491e-05 6.65547e-05 2.18791e-05 4.6573e-05 2.55008e-05 1.81439e-05 1.35868e-05 2.02458e-05 1.13383e-05 9.32972e-06 6.76211e-06 6.84972e-05 5.08426e-05 6.92878e-06 1.03036e-05 5.89093e-05 1.43879e-05 6.58244e-05 6.72499e-05 6.94029e-05 3.29935e-06 9.20665e-06 6.6433e-05 5.12481e-05 7.61274e-05 3.81841e-05 2.07989e-05 7.3495e-05 4.68313e-05 2.71179e-05 1.76967e-05 3.36535e-05 1.39945e-05 6.04655e-05 3.19872e-05 4.28381e-05 2.79052e-05 6.08262e-05 2.23797e-05 3.34063e-05 3.96303e-05 2.69572e-05 3.75476e-05 6.37005e-06 4.58338e-05 2.91428e-05 1.98186e-05 5.5382e-05 2.77649e-06 2.58105e-05 1.89271e-05 5.12428e-05 4.77835e-05 1.19471e-05 3.57703e-05 3.24102e-05 6.69478e-05 2.23864e-05 3.14525e-05 3.49379e-05 4.60326e-05 4.27766e-05 5.20924e-06 7.07741e-05 5.93259e-05 7.10902e-06 6.79393e-05 3.94613e-05 3.60551e-05 5.498e-05 3.9813e-05 5.6591e-05 1.76644e-05 1.93798e-05 3.62408e-05 3.33451e-06 4.48217e-05 2.78703e-05 4.3574e-05 7.64673e-06 6.06207e-05 4.12331e-05 5.2301e-05 5.64616e-05 4.51624e-05 3.66e-05 2.95467e-05 4.08755e-05 3.21516e-05 4.92664e-05 2.83724e-05 6.05817e-05 6.33259e-05 7.47456e-05 6.77001e-05 5.90635e-05 2.18709e-05 1.77917e-05 1.02709e-05 3.39315e-05 9.29793e-06 4.50651e-05 9.20449e-06 2.44301e-05 3.48533e-05 5.42816e-05 7.17011e-05 2.55696e-06 9.5e-06 6.55195e-05 5.80439e-05 5.65e-05 4.28457e-05 5.75601e-05 3.64378e-05 4.63078e-05 3.14891e-05 7.4111e-05 1.641e-05 7.64523e-05 6.84682e-05 6.39896e-05 7.61155e-05 4.71465e-05 5.14632e-06 7.09002e-05 3.07871e-05 3.06284e-05 1.66752e-05 5.51868e-05 5.67064e-05 2.90022e-05 2.70159e-05 3.1901e-05 4.37731e-05 2.66754e-05 8.15041e-06 3.10054e-05 3.49998e-05 1.93689e-05 5.8376e-05 6.66025e-05 8.16355e-06 3.47555e-05 1.98004e-05 3.76133e-05 5.85065e-05 1.63216e-05 6.68083e-05 6.28544e-05 2.28815e-05 2.00254e-05 3.28532e-05 6.845e-06 4.604e-05 3.36921e-05 3.95809e-05 2.91432e-05 2.88111e-05 7.65249e-05 7.48099e-05 2.65847e-05 1.92602e-05 2.56586e-06 4.56244e-05 2.64294e-05 7.19605e-05 7.88522e-07 7.71491e-05 2.5546e-06 4.13887e-06 4.84884e-05 7.42956e-05 5.91904e-05 6.50776e-05 3.59823e-05 7.3326e-05 2.3939e-05 5.33581e-05 7.37121e-05 2.07913e-05 7.59252e-05 3.26111e-05 7.30965e-05 5.95974e-05 7.14492e-05 7.53421e-05 3.87549e-05 6.86634e-05 1.90274e-05 8.93656e-06 1.64268e-05 5.89057e-05 1.7866e-05 3.10756e-05 5.78482e-05 1.56443e-05 2.51392e-05 5.71385e-05 7.6187e-05 2.41094e-05 5.66812e-05 2.0779e-05 6.91925e-06 7.3186e-05 7.35249e-05 5.92604e-05 4.04683e-05 7.42492e-05 2.42765e-05 1.96793e-05 6.9556e-05 5.99636e-05 3.21384e-05 5.58494e-05 6.68097e-05 2.52772e-05 6.7026e-05 6.44865e-05 5.32984e-05 1.35e-05 8.7421e-06 5.20435e-05 6.66345e-05 5.08485e-05 4.25491e-05 3.19406e-05 7.53394e-05 2.54378e-05 2.25211e-05 7.49447e-05 2.38883e-05 5.34577e-05 3.78888e-06 7.07141e-05 5.89989e-05 2.41782e-05 4.12658e-05 6.27352e-05 2.7523e-05 6.34388e-05 1.55883e-05 7.12871e-05 7.50693e-05 1.2e-05 2.1978e-05 7.59976e-05 5.33576e-05 6.18887e-05 6.50687e-06 3.89139e-05 7.70646e-05 3.09777e-06 2.6746e-05 2.98005e-05 1.75311e-05 7.53821e-05 3.45e-05 1.74211e-05 3.4862e-05 6.69169e-05 6.24703e-05 1.42402e-06 5.0462e-05 2.74107e-05 7.71972e-05 2.27808e-05 5.44794e-05 5.19405e-05 2.51814e-05 3.1268e-05 4.80372e-06 3.9181e-05 1.41066e-05 6.64021e-05 6.95883e-05 6.30864e-05 1.63652e-05 2.66451e-05 3.21059e-05 3.0185e-05 1.00046e-05 1.45199e-05 2.17735e-05 6.49186e-05 1.61225e-06 8.86234e-06 6.6667e-05 7.20208e-05 1.54872e-05 7.05099e-06 5.53108e-05 1.77924e-05 5.77615e-05 7.45072e-05 9.92987e-06 1.24241e-05 1.56561e-05 1.65015e-05 4.65086e-05 6.40737e-05 3.48856e-05 7.59343e-05 4.33434e-05 2.90549e-05 1.45783e-05 1.26835e-05 3.16497e-06 5.04874e-05 5.42861e-05 5.46337e-05 6.39236e-05 2.79263e-05 6.82225e-05 5.22521e-05 1.11913e-05 8.63884e-06 3.24806e-05 7.43621e-05 3.28729e-06 1.28482e-05 6.79543e-05 4.75097e-05 2.05504e-05 8.97446e-06 7.64794e-05 6.5497e-05 4.94096e-06 4.48927e-05 3.76562e-06 4.30682e-05 7.63153e-05 5.21848e-05 3.31929e-06 9.44532e-06 4.99651e-05 1.58844e-06 3.22485e-05 3.22695e-05 2.35523e-05 6.48157e-05 6.77115e-06 1.342e-05 4.094e-05 7.54765e-05 6.25349e-05 3.65e-05 3.87988e-05 5.26851e-05 9.71461e-06 6.69184e-05 5.29108e-05 4.58801e-05 5.99401e-05 1.57853e-05 7.71031e-05 4.78937e-05 5.7882e-05 4.2584e-05 2.57955e-05 7.51021e-07 3.2338e-05 2.04277e-05 6.71782e-05 5.51258e-05 4.58078e-05 5.5e-06 5.22466e-05 4.38504e-05 4.2409e-05 6.73139e-05 1.04426e-05 9.30268e-06 5.02055e-05 7.05e-05 7.21196e-05 6.54209e-05 4.49717e-05 9.90966e-06 3.4984e-05 4.10109e-05 1.23947e-05 7.58712e-05 6.41394e-05 7.5797e-05 2.17269e-06 4.91676e-06 2.98921e-05 5.4658e-05 7.71968e-05 4.07033e-05 5.1387e-05 4.87078e-05 3.38698e-05 6.6859e-05 7.