TITLE = "mos2d"
VARIABLES = "x", "y", "Acceptors", "AtContactNode", "BodyDoping", "ContactNSurfaceNormal_x", "ContactNSurfaceNormal_y", "ContactSurfaceArea", "Donors", "DrainDoping", "DrainDoping1", "DrainDoping2", "Interface_charge", "IntrinsicCharge", "IntrinsicCharge:Potential", "IntrinsicElectrons", "IntrinsicElectrons:Potential", "IntrinsicHoles", "IntrinsicHoles:Potential", "NSurfaceNormal_x", "NSurfaceNormal_y", "NetDoping", "NodeVolume", "Potential", "PotentialIntrinsicCharge", "PotentialIntrinsicCharge:Potential", "Potential_prev", "SourceDoping", "SourceDoping1", "SourceDoping2", "SurfaceArea", "bodynodemodel", "bodynodemodel:Potential", "coordinate_index", "drainnodemodel", "drainnodemodel:Potential", "gatenodemodel", "gatenodemodel:Potential", "node_index", "sourcenodemodel", "sourcenodemodel:Potential", "well_Doping", "EParallel", "EdgeCouple", "EdgeInverseLength", "EdgeLength", "EdgeNodeVolume", "ElectricField", "ElectricField:Potential@n0", "ElectricField:Potential@n1", "Potential@n0", "Potential@n1", "PotentialEdgeFlux", "PotentialEdgeFlux:Potential@n0", "PotentialEdgeFlux:Potential@n1", "contactcharge_edge", "contactcharge_edge:Potential@n0", "contactcharge_edge:Potential@n1", "edge_index", "mu_n", "mu_n:Potential@n0", "mu_n:Potential@n1", "mu_p", "mu_p:Potential@n0", "mu_p:Potential@n1", "unitx", "unity", "ElementEdgeCouple", "ElementNodeVolume"
ZONE T="bulk" NODES=1072, ELEMENTS=2022, DATAPACKING=BLOCK, ZONETYPE=FETRIANGLE, VARLOCATION=([68,69]=CELLCENTERED)
0 4.8e-05 4.8e-05 3.8e-05 1e-05 0 3e-06 6e-06 9e-06 1.2e-05 1.5e-05 1.8e-05 2.1e-05 2.4e-05 2.7e-05 3e-05 3.3e-05 3.6e-05 3.9e-05 4.2e-05 4.5e-05 4.8e-05 4.8e-05 4.8e-05 4.8e-05 4.8e-05 4.8e-05 4.8e-05 4.8e-05 4.8e-05 4.8e-05 4.8e-05 4.8e-05 4.8e-05 4.8e-05 4.8e-05 4.8e-05 4.8e-05 4.8e-05 4.8e-05 4.8e-05 4.8e-05 4.8e-05 4.8e-05 4.8e-05 4.8e-05 4.8e-05 4.8e-05 4.7e-05 4.6e-05 4.5e-05 4.4e-05 4.3e-05 4.2e-05 4.1e-05 4e-05 3.9e-05 3.7e-05 3.6e-05 3.5e-05 3.4e-05 3.3e-05 3.2e-05 3.1e-05 3e-05 2.9e-05 2.8e-05 2.7e-05 2.6e-05 2.5e-05 2.4e-05 2.3e-05 2.2e-05 2.1e-05 2e-05 1.9e-05 1.8e-05 1.7e-05 1.6e-05 1.5e-05 1.4e-05 1.3e-05 1.2e-05 1.1e-05 9e-06 8e-06 7e-06 6e-06 5e-06 4e-06 3e-06 2e-06 1e-06 0 0 0 0 0 0 0 0 0 0 0 0 0 0 0 0 0 0 0 0 0 0 0 0 0 0 0 2.33983e-05 2.96618e-05 4.63693e-05 1.84091e-05 1.57051e-06 1.35281e-05 3.45e-05 4.66393e-05 1.36066e-06 3.85e-05 9.53347e-06 2.25361e-05 4.68539e-05 1.26597e-06 1.8383e-06 4.57631e-05 4.15009e-05 6.50351e-06 2.64947e-05 3.16871e-05 1.33632e-05 4.68982e-05 1.03134e-06 1.87718e-06 4.59589e-05 3.45497e-06 4.43131e-05 4.62768e-05 1.6263e-06 4.65777e-05 1.47816e-06 4.6742e-05 1.33508e-06 2.55185e-06 4.71583e-05 1.07616e-06 3.75477e-05 3.65e-05 3.23923e-05 1.56346e-05 1.14743e-05 2.06171e-05 7.59065e-06 4.33215e-05 1.50294e-06 4.63955e-05 4.04583e-05 3.90099e-05 3.61964e-05 3.75259e-05 3.48878e-05 3.61652e-05 3.36365e-05 3.48926e-05 3.24353e-05 3.36497e-05 3.13185e-05 3.2511e-05 3.01571e-05 3.17352e-05 2.91304e-05 3.0359e-05 2.77783e-05 2.90287e-05 2.70482e-05 2.79933e-05 2.60823e-05 2.71037e-05 2.51641e-05 2.61496e-05 2.42713e-05 2.52077e-05 2.34008e-05 2.43372e-05 2.25591e-05 2.60946e-05 2.50213e-05 2.52291e-05 2.69351e-05 2.16145e-05 2.07827e-05 2.61307e-05 2.77724e-05 1.98448e-05 1.90171e-05 2.69567e-05 2.85746e-05 2.93763e-05 3.01738e-05 3.09739e-05 3.17553e-05 3.09707e-05 3.25021e-05 1.80823e-05 1.72666e-05 1.81848e-05 1.64833e-05 1.73702e-05 1.57258e-05 1.65685e-05 1.49884e-05 1.5811e-05 1.42874e-05 3.2586e-05 1.63182e-05 3.17414e-05 3.32193e-05 1.50775e-05 1.36058e-05 1.67002e-05 1.4119e-05 3.24717e-05 3.39166e-05 3.46661e-05 3.53583e-05 3.10285e-05 3.12945e-05 1.43699e-05 1.2885e-05 1.71546e-05 1.21543e-05 1.14981e-05 1.5345e-05 1.62053e-05 3.61042e-05 3.67882e-05 2.80849e-05 3.17371e-05 3.03521e-05 3.60482e-05 3.744e-05 1.21831e-05 1.08787e-05 1.0724e-05 1.43367e-05 1.5223e-05 3.75548e-05 3.10238e-05 2.9691e-05 3.67377e-05 3.80676e-05 1.33209e-05 1.42152e-05 1.25358e-05 1.15727e-05 1.02815e-05 2.53682e-05 3.03643e-05 2.90519e-05 2.83717e-05 2.76129e-05 2.70405e-05 2.62534e-05 2.57207e-05 2.50317e-05 2.44263e-05 2.37972e-05 3.73921e-05 3.86776e-05 3.93717e-05 3.9968e-05 2.31381e-05 2.25068e-05 1.09638e-05 1.23046e-05 9.70032e-06 8.99684e-06 8.42332e-06 1.21833e-05 1.31641e-05 1.52197e-05 1.40891e-05 1.6281e-05 1.52075e-05 3.17808e-05 3.34372e-05 3.51571e-05 7.71335e-06 7.15878e-06 1.29005e-05 1.39913e-05 1.63437e-05 4.06612e-05 2.85737e-05 3.166e-05 4.12461e-05 2.43238e-05 4.05208e-05 3.26104e-05 3.42999e-05 7.8493e-06 6.60152e-06 2.18329e-05 2.12156e-05 1.0407e-05 1.80979e-05 2.24718e-05 2.1874e-05 2.06088e-05 1.99422e-05 1.93483e-05 4.18072e-05 3.10047e-05 3.22313e-05 2.99756e-05 3.80103e-05 5.91543e-06 1.16972e-05 1.86742e-05 1.8093e-05 3.50543e-05 3.60042e-05 3.52206e-05 3.69434e-05 3.77496e-05 3.86353e-05 3.78551e-05 3.94197e-05 1.50178e-05 1.74494e-05 1.86747e-05 1.98502e-05 2.0678e-05 1.06325e-05 3.74235e-05 1.69873e-05 3.16479e-05 3.28272e-05 5.36778e-06 2.12449e-05 4.01991e-05 4.19409e-05 4.1346e-05 4.10489e-05 4.23684e-05 1.87953e-05 1.75216e-05 1.68353e-05 1.6309e-05 1.92743e-05 1.86097e-05 2.10936e-05 7.279e-06 2.76673e-05 2.5082e-05 4.30283e-05 4.66269e-06 5.20699e-06 2.91045e-05 3.85669e-05 4.03709e-05 2.17874e-05 9.40624e-06 1.03693e-05 1.69447e-05 1.57633e-05 3.67555e-05 3.73417e-05 4.26705e-05 4.20522e-05 4.35715e-05 4.29418e-05 1.45513e-05 1.79786e-05 8.28436e-06 1.1375e-05 9.90623e-06 1.05857e-05 9.07486e-06 9.86297e-06 8.29712e-06 9.05336e-06 7.49079e-06 7.4279e-06 8.10919e-06 3.2238e-05 3.10647e-05 3.33813e-05 8.37054e-06 6.44654e-06 7.19328e-06 1.00166e-05 2.10456e-05 2.78177e-05 1.51268e-05 1.45915e-05 3.29301e-05 3.68511e-05 3.83389e-05 4.14575e-06 4.82121e-06 5.72089e-06 2.6196e-05 2.46302e-05 4.33713e-05 4.27763e-05 4.40946e-05 5.6031e-06 6.3022e-06 8.03831e-06 7.07233e-06 3.93753e-06 4.50579e-06 1.98171e-05 2.23766e-05 1.72603e-05 1.85964e-05 2.36418e-05 2.49548e-05 7.12464e-06 3.65526e-06 4.29871e-06 3.16356e-05 3.0479e-05 4.07141e-05 1.39568e-05 1.34295e-05 1.44675e-05 4.34676e-05 4.45942e-05 4.23466e-05 3.61396e-05 3.6736e-05 3.79018e-05 4.4239e-05 3.73075e-05 3.6173e-05 3.84471e-05 1.85013e-05 1.63932e-05 1.74862e-05 2.38052e-05 2.30779e-05 4.38474e-05 2.99121e-05 2.93082e-05 2.24721e-05 2.18893e-05 2.30565e-05 2.24772e-05 2.3632e-05 2.13434e-05 3.55135e-05 4.02204e-05 8.48527e-06 7.98501e-06 9.10722e-06 6.77436e-06 1.99203e-05 2.22132e-05 2.11002e-05 1.27912e-05 1.2265e-05 1.7315e-05 8.55239e-06 9.74013e-06 3.18022e-05 3.10401e-05 9.56965e-06 7.3863e-06 8.67825e-06 6.43024e-06 2.21628e-05 2.15412e-05 2.42041e-05 2.47754e-05 2.53472e-05 2.59117e-05 2.64885e-05 2.70429e-05 1.40675e-05 4.93366e-06 1.69875e-05 2.19365e-05 1.66618e-05 3.16953e-06 2.87581e-05 2.33858e-05 9.34199e-06 3.53903e-05 2.32875e-05 1.73634e-05 2.9621e-05 3.90493e-05 3.94873e-05 2.38847e-05 6.08794e-06 7.96841e-06 4.28212e-05 6.99372e-06 2.11514e-05 3.76171e-05 3.60944e-05 3.91338e-05 3.97152e-05 4.06555e-05 1.0221e-05 4.40587e-05 4.34388e-05 3.09541e-05 3.1777e-05 2.53606e-05 2.17507e-05 2.04011e-05 7.54132e-06 6.25084e-06 6.81197e-06 5.44569e-06 1.13346e-05 4.37199e-05 4.49309e-05 3.74744e-06 4.90178e-06 2.69203e-06 4.52491e-05 2.58604e-06 1.58534e-05 1.46271e-05 1.31944e-05 1.19397e-05 1.05335e-05 9.28337e-06 7.87561e-06 6.67337e-06 3.00561e-05 2.59523e-05 2.07129e-05 2.00615e-05 2.3266e-05 3.2474e-06 2.44347e-06 3.74031e-06 4.07621e-06 2.21597e-05 1.08143e-05 5.25789e-06 3.2202e-05 6.04262e-06 4.59909e-06 5.20588e-06 3.53343e-06 2.61463e-05 2.75296e-05 2.62425e-05 3.77475e-05 4.54967e-06 3.49862e-05 3.09032e-05 3.27151e-05 3.18849e-05 3.36947e-05 1.59488e-05 1.53547e-05 1.74483e-05 4.16828e-05 4.12643e-05 4.06775e-05 3.6959e-05 1.1727e-05 2.08172e-05 2.02292e-05 1.98689e-05 1.03417e-05 2.70456e-05 1.91852e-05 1.78974e-05 1.78518e-05 4.56363e-05 3.43354e-05 4.21031e-05 4.28892e-05 4.43875e-05 4.36432e-05 2.89023e-05 2.7703e-05 4.55007e-06 3.26911e-05 3.47182e-05 3.36639e-05 3.57624e-05 3.47476e-05 3.68189e-05 3.78283e-05 3.88913e-05 3.98829e-05 4.0926e-05 3.99578e-05 4.18788e-05 4.08664e-05 4.24191e-05 4.11369e-05 4.28252e-05 4.18326e-05 3.88914e-05 4.00168e-05 4.22423e-05 4.12201e-05 4.37669e-05 4.23657e-05 4.36631e-05 4.27839e-05 4.47811e-05 4.36744e-05 3.56043e-05 3.76423e-05 4.38751e-05 3.962e-05 4.50974e-05 1.58468e-05 1.14119e-05 4.58397e-06 5.59532e-06 3.55389e-05 8.03361e-06 5.48384e-06 2.98757e-06 1.96242e-05 2.10256e-05 4.5463e-05 2.27867e-05 4.6159e-05 4.55544e-05 4.19011e-05 4.29181e-05 4.43891e-05 4.60088e-05 2.93041e-05 4.62224e-05 4.01079e-05 1.95235e-05 3.97467e-05 1.9214e-05 2.03843e-05 3.08249e-05 4.11251e-06 5.99897e-06 5.00741e-06 3.46578e-05 4.37877e-05 4.20774e-05 1.21518e-05 3.36708e-05 1.87068e-05 1.99601e-05 1.92339e-05 2.3154e-05 2.20916e-06 2.14015e-06 2.31024e-05 6.04624e-06 4.18151e-05 4.29454e-05 4.46167e-05 6.6674e-06 7.52602e-06 7.6252e-06 8.3495e-06 1.52037e-05 1.46919e-05 1.35764e-05 3.99835e-05 2.78958e-05 2.77684e-05 2.69897e-05 2.86345e-05 2.54223e-05 2.62621e-05 2.9403e-05 2.30691e-05 2.24987e-05 3.31811e-05 3.46503e-05 3.38938e-05 9.08357e-06 2.42094e-05 2.48776e-05 4.39765e-05 4.3376e-05 3.66435e-05 3.55658e-05 3.50458e-05 3.45125e-05 1.09235e-05 1.03466e-05 2.00629e-05 7.18131e-06 3.39366e-05 3.33614e-05 3.27925e-05 1.18799e-05 2.50869e-05 2.76539e-05 1.29581e-05 2.64842e-05 2.75838e-05 2.81669e-05 2.87166e-05 2.81112e-05 2.98892e-05 3.05111e-05 1.35397e-05 3.55963e-05 1.04765e-05 1.73135e-05 1.61424e-05 1.46225e-05 1.41574e-05 3.87963e-05 1.15998e-06 1.82553e-05 4.60029e-05 1.92605e-06 3.17342e-05 9.53597e-07 4.6485e-05 2.238e-05 1.01462e-05 1.55451e-05 1.38004e-05 1.27889e-05 1.19579e-05 1.08891e-05 1.17555e-05 9.84942e-06 3.81731e-05 3.32953e-05 3.67471e-05 1.75223e-05 3.89571e-05 6.03997e-06 3.90617e-06 1.32415e-05 1.11808e-06 2.13899e-06 3.36917e-06 4.53661e-06 1.92924e-06 4.2848e-06 4.59948e-05 1.95285e-06 1.56614e-06 2.99434e-06 3.15048e-06 4.65037e-05 4.66789e-05 1.37941e-06 4.61863e-05 4.44366e-05 4.67408e-05 1.65218e-06 4.68107e-05 4.57436e-05 1.24917e-05 4.59697e-05 4.67889e-05 5.32085e-06 9.59011e-07 2.24367e-06 1.34561e-05 1.58527e-05 1.64854e-05 1.73975e-05 2.22426e-05 2.43571e-05 2.55249e-05 2.12729e-05 1.07038e-05 8.51956e-06 3.92442e-05 2.76224e-05 1.76488e-05 2.35448e-05 2.00448e-05 2.17485e-06 4.47586e-05 6.03237e-06 5.49129e-06 3.23616e-05 2.69457e-05 2.97966e-05 3.02533e-05 3.05581e-06 3.89059e-05 4.17942e-05 3.87604e-05 3.61067e-05 1.48409e-05 3.39689e-05 3.41048e-05 2.41109e-05 2.65142e-05 2.85894e-05 1.35494e-05 2.45724e-05 3.09723e-05 5.43356e-06 2.36406e-05 3.33654e-05 4.56082e-05 4.53051e-05 9.6362e-06 4.8306e-06 3.80179e-06 4.3208e-05 1.82106e-05 2.49298e-06 1.9257e-06 3.01339e-06 3.95e-05 5.43051e-06 3.75e-05 3.55e-05 1.05005e-05 1.24837e-05 4.05001e-05 2.094e-05 1.95419e-05 3.3442e-05 1.46083e-05 1.95342e-05 2.47824e-05 2.98504e-06 4.71812e-05 1.6084e-05 3.48508e-05 6.46269e-06 2.49967e-06 2.05521e-05 4.33628e-05 4.5431e-05 1.79399e-05 4.24917e-05 2.09929e-05 1.32822e-05 9.57964e-06 4.00504e-05 3.85286e-05 3.54e-05 1.28251e-05 2.38074e-05 1.89047e-05 2.63644e-05 3.7814e-05 2.07125e-05 2.24619e-05 2.44774e-05 1.36566e-05 1.56351e-05 3.04812e-05 4.36654e-06 3.01728e-05 2.90164e-05 2.48258e-05 2.36266e-05 8.9181e-06 9.84981e-06 3.95831e-06 3.6695e-05 3.84441e-05 4.25652e-05 3.34754e-05 8.96489e-06 4.14491e-05 4.00467e-05 2.76424e-05 2.10772e-05 1.61168e-05 4.50748e-05 3e-06 3.44718e-05 1.98549e-05 5.73713e-06 8.82495e-06 8.5e-06 4.09374e-05 1.20518e-05 2.813e-05 4.71874e-05 8.38156e-07 2.14536e-05 4.46619e-05 7.86031e-06 3.44729e-05 1.07546e-05 4.43555e-05 3.61609e-05 1.25617e-05 2.54791e-05 3.76606e-05 3.25785e-05 2.53939e-05 1.15044e-05 9.39358e-06 3.63098e-05 6.45727e-06 4.19352e-05 9.12601e-06 4.51787e-05 4.55379e-05 3.70087e-05 1.07303e-05 1.28409e-05 4.93968e-06 3.07655e-05 2.93533e-05 1.90837e-05 3.99257e-05 4.57595e-06 1.8894e-05 1.1857e-05 3.9468e-05 1.9078e-06 3.4734e-05 2.9063e-05 2.2181e-05 4.70985e-05 1.89969e-06 1.19183e-05 2.74587e-05 1.2734e-05 1.49023e-05 4.29751e-05 4.53713e-05 3.35217e-06 8.04783e-06 3.8766e-05 1.35098e-05 2.30046e-05 4.4221e-05 4.59626e-05 1.87359e-05 3.86833e-05 3.38824e-05 3.04477e-06 3.39293e-05 1.1749e-06 1.12774e-05 4.13174e-05 3.34669e-06 2.73318e-05 1.07173e-05 9.57128e-07 4.1522e-05 2.69988e-05 2.85683e-05 4.01962e-05 3.50009e-05 1.47027e-05 3.56069e-05 1.96686e-05 2.85101e-05 2.54835e-05 2.90171e-05 4.62476e-05 4.71758e-05 2.59492e-05 3.6035e-05 3.28435e-05 3.33331e-05 3.94494e-05 1.93684e-05 4.37299e-05 7.22372e-06 1.64572e-05 2.41038e-05 2.61069e-05 4.45175e-05 3.7071e-05 2.1233e-06 6.89496e-06 3.70932e-06 4.57303e-05 4.08005e-05 1.76447e-06 1.95e-05 4.1e-05 4.45695e-05 2.86315e-05 3.13563e-05 2.36467e-05 3.81293e-05 2.58953e-05 2.95806e-05 2.92705e-05 2.4474e-05 2.2417e-05 2.75753e-05 4.09716e-05 4.21577e-05 1.99138e-06 3.05058e-05 6.4006e-06 4.52497e-05 4.24257e-06 3.90024e-05 4.56143e-05 3.12084e-06 2.01674e-05 2.94887e-05 3.38927e-05 1.86467e-05 4.7268e-05 7.31983e-07 3.98921e-05 1.1307e-05 2.58549e-06 2.24794e-05 1.0929e-05 1.67731e-05 2.16447e-05 4.04096e-05 8.80488e-06 3.0652e-06 3.04307e-05 7.50215e-06 4.17103e-05 7.0348e-06 1.73915e-06 4.21196e-06 1.52781e-05 1.77334e-05 3.54178e-06 1.73406e-05 4.34749e-05 4.45348e-05 2.95905e-05 4.42827e-05 1.19943e-05 7.65468e-06 2.62034e-05 1.83334e-05 4.09926e-05 2.2258e-06 1.64921e-05 1.17832e-05 4.65089e-05 1.41295e-05 3.37128e-05 4.49968e-05 4.4549e-05 2.8586e-05 4.56196e-05 4.47645e-05 1.31234e-05 6.72682e-06 1.15044e-05 2.71879e-05 3.80179e-06 4.55879e-05 1.51985e-05 4.28687e-05 1.00509e-05
0 0 5e-05 5e-05 5e-05 5e-05 0 0 0 0 0 0 0 0 0 0 0 0 0 0 0 2.88573e-06 5.66043e-06 8.32836e-06 1.08936e-05 1.33602e-05 1.57319e-05 1.80123e-05 2.0205e-05 2.23133e-05 2.43405e-05 2.62897e-05 2.81639e-05 2.9966e-05 3.16987e-05 3.33648e-05 3.49668e-05 3.65071e-05 3.79882e-05 3.94123e-05 4.07815e-05 4.20981e-05 4.33641e-05 4.45813e-05 4.57517e-05 4.68771e-05 4.79592e-05 4.89996e-05 5e-05 5e-05 5e-05 5e-05 5e-05 5e-05 5e-05 5e-05 5e-05 5e-05 5e-05 5e-05 5e-05 5e-05 5e-05 5e-05 5e-05 5e-05 5e-05 5e-05 5e-05 5e-05 5e-05 5e-05 5e-05 5e-05 5e-05 5e-05 5e-05 5e-05 5e-05 5e-05 5e-05 5e-05 5e-05 5e-05 5e-05 5e-05 5e-05 5e-05 5e-05 5e-05 5e-05 5e-05 5e-05 4.89996e-05 4.79592e-05 4.68771e-05 4.57517e-05 4.45813e-05 4.33641e-05 4.20981e-05 4.07815e-05 3.94123e-05 3.79882e-05 3.65071e-05 3.49668e-05 3.33648e-05 3.16987e-05 2.9966e-05 2.81639e-05 2.62897e-05 2.43405e-05 2.23133e-05 2.0205e-05 1.80123e-05 1.57319e-05 1.33602e-05 1.08936e-05 8.32836e-06 5.66043e-06 2.88573e-06 4.92361e-05 4.92488e-05 2.53312e-05 4.92549e-05 2.72444e-05 4.92147e-05 4.91446e-05 3.41658e-05 3.41658e-05 4.91515e-05 4.91568e-05 2.46327e-06 4.00665e-05 3.99618e-05 1.90565e-05 1.69922e-05 4.91596e-05 4.9088e-05 4.91755e-05 2.57075e-06 2.31341e-06 4.39475e-05 4.39516e-05 1.21494e-05 9.91748e-06 4.91619e-05 4.92725e-05 2.11616e-05 2.32533e-05 3.08036e-05 3.08313e-05 3.72476e-05 3.7265e-05 7.07114e-06 4.6339e-05 4.63805e-05 2.57399e-06 4.91475e-05 4.9218e-05 4.92787e-05 4.92031e-05 4.92492e-05 2.45251e-06 2.63294e-06 4.91618e-05 4.90276e-05 2.56737e-06 5.04028e-06 5.09321e-06 7.41049e-06 7.50052e-06 9.72755e-06 9.82181e-06 1.19811e-05 1.20665e-05 1.41438e-05 1.42355e-05 1.61076e-05 1.63126e-05 1.8312e-05 1.83027e-05 2.03046e-05 2.01392e-05 2.20111e-05 2.21209e-05 2.38088e-05 2.39255e-05 2.56102e-05 2.56644e-05 2.72999e-05 2.73463e-05 2.89283e-05 2.89729e-05 3.05015e-05 3.05366e-05 3.0483e-05 2.23469e-05 3.20264e-05 3.20004e-05 2.90317e-05 3.0587e-05 3.34668e-05 3.34557e-05 2.90903e-05 3.06388e-05 3.48702e-05 3.48515e-05 3.34653e-05 3.48534e-05 3.34793e-05 3.48625e-05 3.62049e-05 3.62214e-05 2.91462e-05 3.06961e-05 3.21642e-05 3.22201e-05 3.36265e-05 3.36881e-05 3.50643e-05 3.51043e-05 3.6421e-05 3.64754e-05 3.34866e-05 2.92079e-05 3.75206e-05 3.75463e-05 3.7739e-05 3.77987e-05 3.79623e-05 3.37707e-05 3.87987e-05 3.88144e-05 3.75801e-05 3.88486e-05 3.87926e-05 2.24204e-05 3.90819e-05 3.91342e-05 2.762e-05 3.78767e-05 3.9146e-05 2.768e-05 2.60601e-05 3.76176e-05 3.88727e-05 1.6463e-05 4.00206e-05 4.00312e-05 4.00719e-05 4.01046e-05 4.03912e-05 4.03875e-05 3.79464e-05 2.61117e-05 2.44359e-05 3.7646e-05 4.12093e-05 4.12209e-05 4.12629e-05 4.13039e-05 2.4504e-05 2.27511e-05 2.62986e-05 4.1546e-05 4.1588e-05 3.48908e-05 4.2359e-05 4.2365e-05 4.12423e-05 4.26079e-05 4.13002e-05 4.25085e-05 4.13058e-05 4.248e-05 4.13147e-05 4.24497e-05 4.24185e-05 4.24519e-05 4.13611e-05 4.24951e-05 4.13244e-05 4.24581e-05 4.26224e-05 4.27934e-05 4.27321e-05 4.16616e-05 4.28097e-05 2.29121e-05 2.1029e-05 2.09596e-05 1.91633e-05 1.91056e-05 1.72416e-05 3.20729e-05 3.20841e-05 1.61557e-05 4.17433e-05 4.2892e-05 1.73095e-05 1.53083e-05 1.52505e-05 4.14087e-05 4.35946e-05 4.23654e-05 4.25503e-05 4.36068e-05 4.36196e-05 3.06272e-05 3.06518e-05 4.39317e-05 4.40171e-05 4.13382e-05 4.24798e-05 4.3825e-05 3.50846e-05 4.01751e-05 4.35699e-05 4.35894e-05 4.25153e-05 4.36199e-05 4.36679e-05 4.34938e-05 4.3511e-05 1.2449e-05 4.35546e-05 4.29837e-05 1.53973e-05 4.25559e-05 4.36675e-05 3.2144e-05 3.06733e-05 2.91646e-05 2.92124e-05 3.07248e-05 2.92866e-05 2.77054e-05 3.07689e-05 1.32553e-05 1.31659e-05 1.52228e-05 1.31286e-05 2.75605e-05 1.74171e-05 1.16515e-05 2.43882e-05 4.45693e-05 4.45926e-05 4.40937e-05 4.46659e-05 2.92719e-05 4.14621e-05 4.02965e-05 4.48844e-05 4.47717e-05 4.47105e-05 4.47469e-05 4.37288e-05 4.48081e-05 4.14343e-05 1.10139e-05 1.09787e-05 4.50206e-05 4.00147e-05 4.01466e-05 4.37346e-05 4.30825e-05 4.19522e-05 2.56221e-05 3.22722e-05 3.20582e-05 3.20557e-05 1.55012e-05 1.34173e-05 4.58002e-05 4.58535e-05 4.35174e-05 4.46057e-05 4.0347e-05 3.91572e-05 4.48029e-05 4.57899e-05 2.93045e-05 4.14675e-05 4.05861e-05 3.66527e-05 3.67193e-05 3.5395e-05 3.54642e-05 3.40366e-05 3.41133e-05 3.26788e-05 3.54469e-05 3.27648e-05 3.13494e-05 4.56122e-05 4.56102e-05 4.56546e-05 1.75133e-05 3.14399e-05 2.99428e-05 3.11735e-05 1.51874e-05 3.05263e-05 4.48727e-05 4.59135e-05 4.24159e-05 3.63641e-05 3.63973e-05 4.41922e-05 4.51711e-05 3.31338e-05 3.62328e-05 3.62613e-05 3.92299e-05 3.7988e-05 4.58436e-05 3.00875e-05 2.8496e-05 2.83837e-05 2.68954e-05 4.20526e-05 4.09017e-05 8.80895e-06 8.78863e-06 8.84764e-06 4.03091e-05 1.09809e-05 8.78771e-06 1.56033e-05 4.5267e-05 4.62171e-05 4.66126e-05 4.66243e-05 3.91233e-05 4.49386e-05 4.59816e-05 4.38891e-05 4.68024e-05 4.68608e-05 4.67513e-05 4.45936e-05 4.5637e-05 4.56584e-05 4.37963e-05 4.66404e-05 4.66434e-05 4.66725e-05 6.55131e-06 4.68219e-05 4.68106e-05 3.4939e-05 3.62975e-05 4.05139e-05 4.56315e-05 4.66658e-05 4.46513e-05 4.56935e-05 4.56835e-05 4.6694e-05 4.66803e-05 4.6709e-05 4.35036e-05 7.34167e-06 4.49669e-05 4.59669e-05 4.59566e-05 4.60849e-05 1.72276e-05 1.71977e-05 1.91659e-05 4.50038e-05 4.60478e-05 4.03699e-05 4.70885e-05 4.69767e-05 7.51959e-06 4.76022e-05 1.93931e-05 1.94878e-05 2.1727e-05 2.14272e-05 3.49487e-05 3.63329e-05 4.56895e-05 4.66814e-05 4.56976e-05 4.66948e-05 4.57085e-05 4.66993e-05 4.69339e-05 2.70654e-05 4.77669e-05 4.76658e-05 4.15262e-05 4.63061e-05 4.56763e-05 1.52114e-05 3.80781e-05 4.12456e-05 2.58008e-05 2.0935e-05 3.88365e-05 4.57024e-05 4.66926e-05 3.76007e-05 2.53287e-05 2.52398e-05 4.77074e-05 4.06722e-05 4.0206e-05 3.50774e-05 3.50586e-05 3.51237e-05 3.65501e-05 3.51799e-05 4.59364e-05 3.80859e-05 3.68048e-05 3.06257e-05 2.91229e-05 4.76195e-05 3.8952e-05 3.90263e-05 3.94762e-05 3.9581e-05 3.83135e-05 3.84072e-05 3.40325e-05 4.26946e-05 4.27818e-05 4.74088e-05 4.71856e-05 4.73215e-05 4.58974e-05 4.54059e-05 6.67762e-06 8.94447e-06 6.81566e-06 9.0086e-06 6.87519e-06 9.08505e-06 6.97535e-06 9.24275e-06 2.9138e-05 4.47083e-05 3.50407e-05 3.64301e-05 1.91017e-05 4.09657e-05 4.21026e-05 3.98249e-05 2.53401e-05 2.10233e-05 4.69242e-05 1.96582e-05 4.75611e-05 3.71248e-05 3.71964e-05 3.59159e-05 3.57604e-05 1.09572e-05 8.79363e-06 6.4979e-06 4.75796e-05 2.14623e-05 4.46265e-05 2.75817e-05 2.7593e-05 2.60097e-05 2.59829e-05 4.0343e-05 4.15905e-05 4.32045e-06 4.76329e-05 4.67426e-05 4.7647e-05 3.37186e-05 4.50475e-05 4.76336e-05 4.67318e-05 4.75493e-05 4.78469e-05 4.4715e-05 4.68444e-05 3.91479e-05 4.76988e-05 4.68912e-05 4.35441e-05 3.67391e-05 3.54961e-05 3.56639e-05 3.41698e-05 6.52117e-06 4.45644e-06 3.44158e-05 2.42843e-05 2.43344e-05 2.25558e-05 2.26249e-05 2.08198e-05 2.08758e-05 2.26771e-05 2.09175e-05 2.27336e-05 2.09831e-05 1.91151e-05 2.28014e-05 2.44965e-05 1.92262e-05 1.72595e-05 2.45614e-05 2.61739e-05 1.7214e-05 1.53054e-05 1.53634e-05 1.3322e-05 1.33753e-05 1.13774e-05 2.62576e-05 2.78017e-05 2.80247e-05 2.94712e-05 2.59894e-05 1.55383e-05 2.30447e-05 2.63353e-05 4.78133e-05 4.77386e-05 4.78123e-05 4.82075e-05 4.81032e-05 1.86425e-05 1.14287e-05 1.15065e-05 3.74791e-05 2.12403e-05 2.2838e-05 4.38855e-05 3.34946e-05 4.27554e-05 4.17182e-05 3.42744e-05 3.2807e-05 3.28943e-05 4.49522e-05 4.46215e-05 4.78462e-05 4.5803e-05 4.57443e-05 4.4708e-05 2.30293e-05 2.45047e-05 2.46832e-05 9.37666e-06 4.71151e-05 2.32903e-05 2.61407e-06 3.12154e-05 3.13426e-05 4.40709e-05 1.9071e-05 1.91837e-05 3.20825e-05 3.38111e-05 3.89428e-05 3.62442e-05 3.85467e-05 4.35678e-05 4.50879e-05 5.04487e-06 7.29403e-06 5.15262e-06 4.79229e-05 4.85706e-05 4.75963e-05 4.8149e-05 4.68836e-05 4.78362e-05 4.789e-05 1.13359e-05 2.74034e-05 3.62133e-05 3.75255e-05 3.77384e-05 3.7549e-05 3.88822e-05 3.62167e-05 4.75998e-05 4.86115e-05 4.00326e-05 4.00508e-05 4.14278e-05 4.38665e-05 4.7579e-05 4.84039e-05 4.77072e-05 4.85897e-05 4.75542e-05 4.75556e-05 4.66662e-05 4.76065e-05 2.12785e-05 2.33208e-05 4.31603e-06 2.35161e-05 4.66694e-05 4.75242e-05 4.66057e-05 1.92651e-05 1.33749e-05 1.28098e-05 4.69754e-05 4.75822e-05 4.76208e-05 4.66932e-05 4.75975e-05 4.83916e-05 4.75621e-05 4.85708e-05 1.11336e-05 4.56541e-05 2.35721e-06 3.64721e-05 4.26946e-05 4.04702e-05 4.16565e-05 2.4432e-05 4.14321e-05 4.59452e-05 1.22492e-05 1.45254e-05 4.84308e-05 4.75166e-05 2.72059e-05 3.76371e-05 3.92472e-05 3.07842e-05 3.09016e-05 2.94539e-05 3.12934e-05 2.96808e-05 2.80379e-05 2.82593e-05 3.89383e-05 3.49131e-05 2.43303e-05 1.72053e-05 4.76676e-05 3.47415e-05 3.29992e-05 3.25554e-05 4.27039e-05 4.34282e-05 4.32099e-05 2.65253e-06 1.68621e-05 1.56979e-05 2.32226e-05 2.52725e-05 2.90422e-05 2.98029e-05 2.81373e-05 2.90256e-05 3.24632e-05 3.246e-05 1.91721e-05 2.01889e-05 3.57938e-05 2.11935e-05 3.87005e-05 3.96175e-05 4.80301e-05 1.45508e-05 4.15347e-05 7.11541e-06 4.51319e-05 4.2466e-06 3.51942e-05 3.89689e-05 4.87081e-05 4.26068e-05 1.31026e-05 1.71408e-05 1.90013e-05 4.84824e-05 3.27109e-05 3.68705e-05 4.35687e-05 4.57023e-05 4.85701e-05 3.20237e-05 4.46643e-05 4.6409e-05 4.48535e-05 1.76745e-05 1.38805e-05 4.12163e-05 2.89708e-05 4.35072e-05 3.75268e-05 3.15782e-05 3.7779e-05 4.57306e-05 4.01865e-05 4.23909e-05 3.23385e-05 3.62899e-05 3.35956e-05 2.41427e-05 4.36639e-05 3.20364e-05 2.78021e-05 3.88294e-05 1.01881e-05 4.61398e-05 4.46707e-05 5.06014e-06 3.65264e-05 4.91751e-05 4.49339e-05 3.16088e-05 1.81501e-05 4.15367e-05 3.78759e-05 4.91407e-05 4.82029e-05 3.42139e-05 4.91834e-05 4.91117e-05 4.91576e-05 4.91523e-05 4.91735e-05 4.90866e-05 4.91875e-05 3.77124e-05 3.7849e-05 4.91706e-05 4.92162e-05 4.9184e-05 4.49992e-06 4.43227e-05 4.73998e-05 1.10601e-05 4.23974e-05 4.18416e-05 3.99062e-05 4.13768e-05 1.72038e-05 3.80923e-05 2.60856e-05 4.26077e-05 3.35125e-05 4.39455e-05 4.04893e-05 4.02524e-05 4.46538e-05 3.63376e-05 3.65746e-05 4.01222e-05 2.76224e-05 4.02773e-05 1.89795e-05 4.57015e-05 2.74426e-05 3.34736e-05 4.27876e-05 4.38099e-05 4.46092e-05 4.91509e-05 3.20615e-05 4.00814e-05 4.46895e-05 6.65957e-06 2.6787e-05 2.52503e-05 3.84341e-05 3.21906e-05 3.40034e-05 4.92799e-05 2.91664e-05 2.98325e-05 3.79798e-05 3.37212e-05 3.86598e-05 6.605e-06 2.26819e-05 3.42428e-05 4.82706e-05 2.75694e-05 4.02558e-05 4.07881e-05 3.93672e-05 4.91784e-05 2.77632e-05 3.53045e-05 4.46864e-05 4.84474e-05 4.8507e-05 2.59821e-05 2.47654e-05 1.37534e-05 4.56605e-05 1.1112e-05 4.16863e-05 2.76997e-05 1.32706e-05 4.92256e-05 2.59817e-05 2.05806e-05 1.53958e-05 2.47851e-05 4.81696e-05 1.38132e-05 4.84534e-06 2.95405e-05 4.71194e-06 2.99895e-05 7.6568e-06 1.7306e-05 2.66935e-05 4.16004e-05 3.96562e-05 4.94182e-06 3.06221e-05 3.90773e-05 4.83035e-05 2.89022e-05 4.81116e-05 4.63554e-06 3.90473e-05 9.6683e-06 3.50043e-05 1.45231e-05 2.43524e-05 4.52086e-05 4.46469e-05 4.69687e-05 4.91918e-05 3.39781e-05 4.2738e-05 2.12698e-05 3.17606e-05 2.39108e-05 3.82156e-05 1.34944e-05 4.03891e-05 2.26726e-05 1.54971e-05 4.07619e-05 3.6541e-05 9.5019e-06 4.46202e-05 2.6529e-05 4.83543e-05 3.5688e-05 4.59922e-05 9.40647e-06 2.03169e-05 1.81534e-05 4.4995e-05 3.87002e-05 3.28443e-05 4.83946e-05 2.91068e-05 3.78978e-05 4.83794e-05 4.44458e-06 3.36186e-05 2.60612e-05 1.06902e-05 4.36095e-05 2.298e-06 4.6e-05 4.27311e-05 4.84002e-05 4.83705e-05 4.83765e-05 4.35789e-05 2.80725e-05 3.53815e-05 9.4979e-06 3.69961e-05 1.96987e-06 2.0817e-05 2.24737e-06 3.94177e-05 4.83781e-05 4.08737e-05 4.69826e-05 1.32389e-05 3.05061e-06 3.05964e-05 4.71661e-05 1.84966e-06 4.84488e-05 1.84943e-05 4.92137e-05 4.92654e-05 4.82901e-05 4.84026e-05 2.08851e-05 8.62624e-06 4.83551e-05 4.93196e-05 4.90876e-06 4.38535e-05 3.66631e-05 4.84697e-05 1.98227e-06 4.9417e-05 3.6045e-05 2.63085e-05 5.17994e-06 4.85417e-05 3.53466e-05 2.2308e-05 4.83684e-05 2.75144e-05 4.2636e-05 2.45427e-05 4.92679e-05 4.92679e-05 4.7435e-05 4.42664e-05 3.29631e-05 4.94501e-05 4.85123e-05 3.93585e-05 4.92989e-05 4.68085e-05 2.38108e-05 3.88382e-05 2.62685e-05 4.93994e-05 3.56318e-05 3.40035e-05 4.55948e-05 3.03959e-05 4.84509e-05 2.25516e-05 1.1178e-05 4.93317e-05 4.94352e-05 4.83907e-05 2.35756e-05 1.13217e-05 3.29141e-05 4.67805e-05 1.68522e-05 4.70472e-05 4.59446e-05 3.51473e-05 4.94637e-05 4.85055e-05 4.68982e-05 4.85056e-05 1.74932e-05 4.06192e-05 3.70462e-05 3.91015e-05 3.31735e-05 2.16884e-05 4.85615e-05 1.26655e-05 4.34252e-05 1.48685e-05 4.84355e-05 4.841e-05 3.9716e-05 3.03924e-05 4.85838e-05