TITLE = "mos2d"
VARIABLES = "x", "y", "Acceptors", "AtContactNode", "BodyDoping", "ContactNSurfaceNormal_x", "ContactNSurfaceNormal_y", "ContactSurfaceArea", "Donors", "DrainDoping", "DrainDoping1", "DrainDoping2", "Interface_charge", "IntrinsicCharge", "IntrinsicCharge:Potential", "IntrinsicElectrons", "IntrinsicElectrons:Potential", "IntrinsicHoles", "IntrinsicHoles:Potential", "NSurfaceNormal_x", "NSurfaceNormal_y", "NetDoping", "NodeVolume", "Potential", "PotentialIntrinsicCharge", "PotentialIntrinsicCharge:Potential", "Potential_prev", "SourceDoping", "SourceDoping1", "SourceDoping2", "SurfaceArea", "bodynodemodel", "bodynodemodel:Potential", "coordinate_index", "drainnodemodel", "drainnodemodel:Potential", "gatenodemodel", "gatenodemodel:Potential", "node_index", "sourcenodemodel", "sourcenodemodel:Potential", "well_Doping", "EParallel", "EdgeCouple", "EdgeInverseLength", "EdgeLength", "EdgeNodeVolume", "ElectricField", "ElectricField:Potential@n0", "ElectricField:Potential@n1", "Potential@n0", "Potential@n1", "PotentialEdgeFlux", "PotentialEdgeFlux:Potential@n0", "PotentialEdgeFlux:Potential@n1", "contactcharge_edge", "contactcharge_edge:Potential@n0", "contactcharge_edge:Potential@n1", "edge_index", "mu_n", "mu_n:Potential@n0", "mu_n:Potential@n1", "mu_p", "mu_p:Potential@n0", "mu_p:Potential@n1", "unitx", "unity", "ElementEdgeCouple", "ElementNodeVolume"
ZONE T="bulk" NODES=863, ELEMENTS=1617, DATAPACKING=BLOCK, ZONETYPE=FETRIANGLE, VARLOCATION=([68,69]=CELLCENTERED)
0 3.8e-05 3.8e-05 2.8e-05 1e-05 0 2.92308e-06 5.84615e-06 8.76923e-06 1.16923e-05 1.46154e-05 1.75385e-05 2.04615e-05 2.33846e-05 2.63077e-05 2.92308e-05 3.21538e-05 3.50769e-05 3.8e-05 3.8e-05 3.8e-05 3.8e-05 3.8e-05 3.8e-05 3.8e-05 3.8e-05 3.8e-05 3.8e-05 3.8e-05 3.8e-05 3.8e-05 3.8e-05 3.8e-05 3.8e-05 3.8e-05 3.8e-05 3.8e-05 3.8e-05 3.8e-05 3.8e-05 3.8e-05 3.8e-05 3.8e-05 3.8e-05 3.8e-05 3.7e-05 3.6e-05 3.5e-05 3.4e-05 3.3e-05 3.2e-05 3.1e-05 3e-05 2.9e-05 2.7e-05 2.6e-05 2.5e-05 2.4e-05 2.3e-05 2.2e-05 2.1e-05 2e-05 1.9e-05 1.8e-05 1.7e-05 1.6e-05 1.5e-05 1.4e-05 1.3e-05 1.2e-05 1.1e-05 9e-06 8e-06 7e-06 6e-06 5e-06 4e-06 3e-06 2e-06 1e-06 0 0 0 0 0 0 0 0 0 0 0 0 0 0 0 0 0 0 0 0 0 0 0 0 0 0 0 1.85e-05 3.65283e-05 1.44785e-06 2.3559e-05 1.35173e-05 1.70321e-06 2.7508e-05 3.62128e-05 3.67377e-05 9.5e-06 1.20956e-06 1.8745e-05 3.70403e-05 2.18668e-06 1.25973e-06 3.60725e-05 6.47854e-06 3.04874e-05 3.35375e-05 2.76106e-05 1.02308e-05 9.4914e-07 3.70494e-05 3.59722e-05 2.08569e-06 1.72052e-06 3.63576e-05 1.56718e-06 3.66706e-05 3.68047e-05 1.27493e-06 3.5e-06 1.15608e-05 2.05513e-05 1.65e-05 2.55404e-05 3.55e-05 4.32149e-06 3.3657e-05 1.51558e-06 3.69915e-05 3.60782e-05 3.41642e-05 3.40576e-05 3.22149e-05 3.23044e-05 3.03785e-05 3.04824e-05 2.8531e-05 2.86877e-05 2.67763e-05 2.69065e-05 2.51441e-05 2.52595e-05 2.34807e-05 2.38001e-05 2.17381e-05 2.18692e-05 2.02191e-05 2.02392e-05 2.1886e-05 2.0338e-05 2.18973e-05 2.04576e-05 2.22216e-05 2.05499e-05 2.20521e-05 2.065e-05 2.20937e-05 1.91996e-05 1.927e-05 1.78693e-05 1.79357e-05 1.99669e-05 1.65646e-05 1.66169e-05 1.78206e-05 1.52901e-05 1.51832e-05 1.53222e-05 1.85267e-05 1.40435e-05 1.4106e-05 2.34606e-05 2.34993e-05 1.28219e-05 1.29264e-05 1.41706e-05 2.4744e-05 2.48304e-05 2.48789e-05 1.29758e-05 1.17683e-05 1.4139e-05 1.18082e-05 1.06473e-05 2.61937e-05 2.62381e-05 2.4955e-05 2.62093e-05 2.50464e-05 2.62216e-05 2.51143e-05 2.6335e-05 2.75479e-05 2.61264e-05 2.75168e-05 1.07138e-05 9.55031e-06 9.44632e-06 2.52709e-05 2.7529e-05 2.86525e-05 2.40217e-05 2.86944e-05 3.02756e-05 9.65083e-06 8.34237e-06 8.23377e-06 2.40449e-05 2.2941e-05 2.69206e-05 2.97901e-05 2.98159e-05 1.07811e-05 2.2981e-05 2.18787e-05 2.97228e-05 2.88222e-05 2.40488e-05 9.7395e-06 3.09116e-05 3.09299e-05 2.18952e-05 2.07961e-05 7.10367e-06 7.00163e-06 8.15192e-06 6.89047e-06 8.02785e-06 1.08546e-05 8.61939e-06 8.70648e-06 7.61238e-06 1.77745e-05 6.74982e-06 7.89888e-06 2.27343e-05 2.08083e-05 1.96991e-05 1.9747e-05 1.86417e-05 1.87189e-05 1.76274e-05 1.86855e-05 6.61521e-06 7.85877e-06 3.20095e-05 3.20205e-05 3.19952e-05 3.09768e-05 1.27212e-05 6.56583e-06 7.80521e-06 9.3738e-06 9.15752e-06 7.46996e-06 9.08596e-06 1.05799e-05 1.0538e-05 8.98911e-06 1.04703e-05 8.81318e-06 1.04179e-05 8.63618e-06 1.03335e-05 1.21023e-05 8.51731e-06 1.02123e-05 1.2045e-05 1.19535e-05 1.00639e-05 1.18718e-05 9.91082e-06 1.17849e-05 1.37964e-05 1.37092e-05 1.57885e-05 1.17804e-05 1.57021e-05 1.7866e-05 7.68322e-06 6.61957e-06 1.98003e-05 3.20468e-05 3.30629e-05 1.7707e-05 1.66365e-05 3.06278e-05 1.77564e-05 1.99763e-05 1.59571e-05 2.34795e-05 1.38072e-05 5.87107e-06 1.1884e-05 1.19813e-05 1.09999e-05 1.79521e-05 1.20724e-05 2.2261e-05 6.0005e-06 1.29204e-05 1.29471e-05 6.71826e-06 5.65998e-06 7.26628e-06 1.53684e-05 1.98261e-05 2.20161e-05 2.18737e-05 2.40808e-05 2.41991e-05 2.62649e-05 5.55084e-06 4.59115e-06 4.47833e-06 4.72135e-06 3.31034e-05 3.30906e-05 3.30878e-05 7.74421e-06 4.75281e-06 4.63134e-06 3.10445e-05 1.67091e-05 3.40792e-05 1.66697e-05 8.13778e-06 7.90822e-06 1.20234e-05 1.36457e-05 3.40946e-05 6.82471e-06 5.45585e-06 3.50639e-06 1.77809e-05 9.19861e-06 3.4279e-05 3.42855e-05 3.30516e-05 2.62047e-05 2.84302e-05 3.42216e-05 3.29846e-05 1.56615e-05 1.57496e-05 2.9986e-05 3.00528e-05 2.90388e-05 2.90899e-05 2.80769e-05 3.39845e-06 3.10832e-05 1.88686e-05 2.37658e-05 1.3901e-05 1.56494e-05 3.41551e-05 3.31172e-05 3.41934e-05 3.29401e-05 3.17218e-05 3.16693e-05 3.29383e-05 3.16114e-05 3.2898e-05 3.1516e-05 3.28881e-05 3.14444e-05 3.29806e-05 3.14566e-05 2.99696e-05 2.99009e-05 3.14254e-05 2.84365e-05 3.01086e-05 6.8032e-06 7.81209e-06 8.74231e-06 3.043e-05 2.63178e-05 2.43112e-05 2.98277e-05 3.13456e-05 1.36031e-05 1.51769e-05 1.51481e-05 6.6969e-06 2.80262e-05 2.70596e-05 2.70104e-05 2.60476e-05 2.60987e-05 2.50926e-05 1.56247e-05 2.85376e-05 2.70081e-05 2.68923e-05 1.29187e-05 1.38849e-05 2.6372e-05 7.43031e-06 1.51933e-05 3.50531e-06 3.3926e-06 3.29844e-05 3.28314e-05 1.93643e-05 2.17739e-05 1.55794e-05 1.74492e-05 1.53942e-05 1.65767e-05 1.65369e-05 1.77134e-05 6.09336e-06 5.87231e-06 7.79528e-06 3.50669e-05 3.50672e-05 3.50665e-05 2.84097e-05 3.06117e-05 3.09239e-05 2.60177e-05 2.51367e-05 2.41515e-05 2.40838e-05 2.31326e-05 5.71287e-06 7.67502e-06 4.26966e-06 3.01662e-06 4.5025e-06 3.41645e-05 2.69101e-05 1.47397e-05 1.48506e-05 3.06177e-05 3.32003e-05 2.31946e-05 2.22771e-05 2.23335e-05 2.13737e-05 2.21321e-05 5.06768e-06 5.20322e-06 4.84621e-06 2.96699e-05 3.82948e-06 3.22793e-06 1.37995e-05 3.0564e-05 2.92277e-05 2.62058e-05 1.67795e-05 5.62236e-06 7.57081e-06 9.831e-06 5.49275e-06 9.68172e-06 1.19631e-05 1.58851e-05 1.49941e-05 2.60707e-05 1.15395e-05 1.13869e-05 1.26539e-05 1.13121e-05 2.1881e-06 2.57015e-06 2.5071e-05 2.80675e-05 2.9071e-05 1.2522e-05 3.52426e-05 8.88216e-06 9.75075e-06 7.9131e-06 2.43137e-05 2.23516e-05 2.23748e-05 2.56985e-05 9.67481e-06 2.03375e-05 2.05509e-05 1.01967e-05 2.25224e-05 3.60619e-05 3.60696e-05 1.46533e-05 2.59137e-05 3.4685e-06 1.42488e-06 2.40105e-05 1.17269e-05 1.41831e-05 1.43177e-05 1.67538e-05 1.66278e-05 3.54544e-05 3.45809e-05 1.07099e-05 1.18446e-05 1.15082e-05 3.46613e-05 1.26541e-05 1.23649e-05 1.10678e-05 1.77392e-05 1.89262e-05 1.9017e-05 2.01787e-05 2.01171e-05 2.13145e-05 2.1303e-05 2.00498e-05 2.13357e-05 1.37547e-05 2.89447e-05 1.40249e-05 1.49359e-05 2.01181e-05 1.37539e-05 1.52764e-05 2.52862e-05 2.67828e-05 2.52129e-05 9.83214e-06 1.87755e-05 1.88293e-05 1.7892e-05 1.98086e-05 1.97693e-05 2.0967e-05 3.00632e-05 1.84968e-05 2.70703e-05 2.2971e-05 1.3373e-05 2.06697e-05 3.40662e-05 5.77349e-06 4.8408e-06 3.81226e-06 3.9197e-06 2.91652e-06 4.94825e-06 2.78635e-06 2.838e-05 3.23651e-05 3.41957e-05 3.42777e-05 1.68361e-05 3.64012e-05 3.48603e-05 2.76465e-05 2.87584e-05 2.82861e-05 3.21e-05 3.20809e-05 3.59149e-05 3.36935e-05 3.39347e-05 1.1624e-06 2.87952e-05 3.06283e-05 7.32298e-06 9.59289e-07 3.62911e-05 7.20031e-06 6.25859e-06 3.1011e-05 3.20265e-05 1.66371e-05 3.60938e-05 5.87283e-06 6.91139e-06 3.50283e-05 3.60195e-05 2.36595e-05 1.16777e-05 2.84088e-05 3.04641e-05 3.30695e-05 1.86155e-05 2.99185e-05 1.13349e-06 2.36082e-06 2.08362e-05 1.64568e-06 3.1477e-06 3.07271e-06 4.60604e-06 4.61379e-06 4.7389e-06 6.23892e-06 3.01276e-06 4.29328e-06 2.8762e-06 1.38981e-06 2.76229e-06 1.51675e-06 1.83605e-06 3.30746e-05 3.66887e-05 3.67132e-05 3.53877e-05 3.67267e-05 3.57929e-05 2.18075e-06 3.69687e-05 3.56357e-05 1.22094e-06 3.18581e-05 2.48846e-05 2.18127e-05 3.59966e-05 1.88906e-05 1.66179e-05 3.70376e-05 2.41085e-05 3.35866e-06 1.91939e-06 1.94477e-06 3.53064e-05 3.65594e-06 1.67642e-05 1.70893e-05 2.52428e-06 2.61677e-05 1.76994e-05 2.83508e-05 4.49137e-06 2.49339e-06 5.48636e-06 3.4511e-05 2.85132e-05 1.05052e-05 2.45496e-05 2.65279e-05 1.94864e-05 1.75e-05 1.5499e-05 2.15256e-05 2.24462e-05 8.48841e-06 3.54417e-05 3.26405e-05 4.00716e-06 4.51699e-06 7.02852e-06 6.50549e-06 1.91137e-05 3.40658e-05 1.56168e-05 2.39123e-05 2.26919e-05 2.21801e-05 1.05571e-05 2.34802e-05 2.50795e-05 1.64863e-05 1.56127e-05 3.44934e-05 3.08744e-05 1.5335e-05 1.18314e-05 8.69052e-06 3.00363e-05 2.86927e-05 3.3061e-05 6.32994e-06 1.69447e-05 3.02537e-05 1.20874e-05 1.18308e-05 5.76279e-06 1.2056e-05 2.34356e-06 1.37708e-05 2.7261e-05 9.80421e-06 2.83642e-05 8.38484e-06 1.97131e-06 2.40031e-05 1.39892e-05 7.42627e-06 3.60189e-05 1.76424e-05 3.21613e-05 1.9077e-05 9.3405e-06 3.19753e-05 1.25215e-05 4.05971e-06 3.55214e-05 2.898e-05 5.42753e-06 1.65618e-05 1.29497e-05 2.95077e-05 1.00212e-05 5.63221e-06 3.09219e-06 2.19933e-05 2.82844e-05 1.39896e-05 8.02622e-07 1.3637e-05 1.10834e-05 3.64683e-05 6.44601e-06 1.65503e-05 3.50766e-05 4.27342e-06 2.46691e-05 3.41482e-05 1.63941e-05 2.79005e-05 9.78611e-06 1.76537e-06 2.27058e-06 3.70689e-05 1.78367e-06 1.76022e-05 1.45103e-05 8.47563e-06 2.72074e-05 1.89497e-05 1.87054e-06 1.04185e-05 2.76537e-05 5.41123e-06 2.06717e-05 2.25636e-05 1.91891e-05 1.02919e-05 3.70261e-05 2.32828e-05 1.94094e-05 2.38425e-05 5.33828e-06 2.06145e-05 2.65133e-05 1.38384e-05 3.07364e-05 3.41201e-05 8.31539e-07 3.41286e-05 4.96678e-06 2.18509e-05 3.78654e-06 1.97205e-05 2.50896e-05 3.09851e-05 3.79408e-06 7.5e-06 7.81004e-06 2.2435e-06 2.74486e-05 1.77921e-05 2.85915e-05 3.26711e-05 3.60758e-05 3.2613e-05 3.69999e-06 3.60015e-05 2.87326e-05 2.95449e-05 3.39576e-06 2.30138e-05 5.13473e-06 2.50534e-05 3.22036e-05 1.53364e-05 5.95677e-06 1.40597e-05 2.40612e-05 3.1305e-05 3.54269e-05 3.59078e-05 9.11793e-06 3.40222e-05 2.31284e-05 2.11704e-06 1.38092e-05 1.40213e-05 2.13017e-05 1.24696e-05 2.19396e-05 1.7961e-05 3.27277e-05 2.48663e-05 5.88375e-06 3.8007e-06 9.27773e-06 2.71697e-05 1.29172e-05 1.37898e-05 1.79082e-05 9.21801e-07 3.54074e-05 1.05595e-05 9.10406e-06 3.00019e-05 7.31983e-07 2.13937e-06 3.7273e-05 1.98624e-05 1.6e-05 2.32854e-05 4e-06 5.46486e-06 1.90953e-05 1.87762e-05 1.78277e-05 2.55716e-05 1.59661e-05 2.80734e-05 1.01949e-05 3.43553e-05 1.03837e-05 3.75926e-06 2.1528e-05 3.4067e-06 1.80065e-05 1.46853e-05 3.62237e-05 2.20222e-05 2.36326e-05 2.06193e-05 5.91791e-06 2.15501e-05 1.42077e-05 1.31596e-05 2.03006e-05 1.69403e-05 2.82285e-05 2.03847e-06 1.21819e-05 2.68335e-05 1.76715e-05 2.40056e-05
0 0 5e-05 5e-05 5e-05 5e-05 0 0 0 0 0 0 0 0 0 0 0 0 2.88573e-06 5.66043e-06 8.32836e-06 1.08936e-05 1.33602e-05 1.57319e-05 1.80123e-05 2.0205e-05 2.23133e-05 2.43405e-05 2.62897e-05 2.81639e-05 2.9966e-05 3.16987e-05 3.33648e-05 3.49668e-05 3.65071e-05 3.79882e-05 3.94123e-05 4.07815e-05 4.20981e-05 4.33641e-05 4.45813e-05 4.57517e-05 4.68771e-05 4.79592e-05 4.89996e-05 5e-05 5e-05 5e-05 5e-05 5e-05 5e-05 5e-05 5e-05 5e-05 5e-05 5e-05 5e-05 5e-05 5e-05 5e-05 5e-05 5e-05 5e-05 5e-05 5e-05 5e-05 5e-05 5e-05 5e-05 5e-05 5e-05 5e-05 5e-05 5e-05 5e-05 5e-05 5e-05 5e-05 5e-05 5e-05 4.89996e-05 4.79592e-05 4.68771e-05 4.57517e-05 4.45813e-05 4.33641e-05 4.20981e-05 4.07815e-05 3.94123e-05 3.79882e-05 3.65071e-05 3.49668e-05 3.33648e-05 3.16987e-05 2.9966e-05 2.81639e-05 2.62897e-05 2.43405e-05 2.23133e-05 2.0205e-05 1.80123e-05 1.57319e-05 1.33602e-05 1.08936e-05 8.32836e-06 5.66043e-06 2.88573e-06 4.9134e-05 3.08324e-05 3.25312e-05 4.91033e-05 4.92309e-05 2.53784e-05 4.91805e-05 2.33105e-05 3.73039e-05 4.9134e-05 3.87002e-05 2.44174e-06 4.26939e-05 1.71031e-05 4.26482e-05 1.68954e-05 4.91469e-05 4.91893e-05 4.91635e-05 2.58385e-06 2.53146e-06 4.63214e-05 4.61816e-05 9.61948e-06 9.61673e-06 2.15321e-05 2.72028e-05 2.90659e-05 3.4235e-05 4.01415e-05 3.57501e-05 4.91795e-05 4.91256e-05 4.9025e-05 4.91711e-05 4.90782e-05 4.9134e-05 2.33827e-06 2.35898e-06 4.91401e-05 4.84147e-05 1.9114e-05 1.80659e-05 1.58054e-05 1.70323e-05 1.92335e-05 1.82325e-05 2.03897e-05 1.93258e-05 2.15525e-05 2.05065e-05 2.26488e-05 2.17928e-05 2.36536e-05 2.29293e-05 2.49807e-05 2.39257e-05 2.59053e-05 2.49875e-05 2.69022e-05 2.77754e-05 2.87468e-05 2.95011e-05 3.05187e-05 3.12314e-05 3.22667e-05 3.30349e-05 3.39073e-05 3.46459e-05 3.31678e-05 3.47448e-05 3.4063e-05 3.5597e-05 2.27759e-05 3.49428e-05 3.64857e-05 3.71944e-05 3.58001e-05 3.42651e-05 3.73191e-05 2.60424e-05 3.66373e-05 3.81099e-05 3.3807e-05 3.53791e-05 3.7459e-05 3.89045e-05 3.95391e-05 2.00598e-05 3.45708e-05 3.61052e-05 4.03123e-05 3.96926e-05 4.09457e-05 4.10668e-05 4.04577e-05 3.52109e-05 3.68037e-05 3.76064e-05 3.82959e-05 3.9063e-05 3.97278e-05 4.04775e-05 4.10732e-05 4.02013e-05 3.36909e-05 4.17489e-05 4.17881e-05 4.12018e-05 3.98752e-05 4.19617e-05 3.57762e-05 4.10537e-05 4.12254e-05 4.23348e-05 1.59672e-05 4.25084e-05 4.0624e-05 3.92795e-05 4.25095e-05 4.1965e-05 2.43366e-05 4.16854e-05 4.29691e-05 4.30778e-05 4.32131e-05 4.26732e-05 4.04158e-05 4.36327e-05 4.36337e-05 4.37738e-05 4.23149e-05 4.35681e-05 4.38548e-05 4.33173e-05 4.00445e-05 3.86784e-05 3.78894e-05 3.72639e-05 3.64466e-05 4.43223e-05 4.32206e-05 4.44677e-05 4.39296e-05 3.24501e-05 3.57961e-05 3.48933e-05 4.0652e-05 4.19544e-05 4.27629e-05 4.40051e-05 4.34583e-05 4.46771e-05 4.41445e-05 4.21696e-05 3.42903e-05 3.33317e-05 4.29222e-05 4.41605e-05 4.1663e-05 4.47918e-05 3.59752e-05 3.27074e-05 3.17958e-05 3.23436e-05 3.07612e-05 2.99079e-05 2.9121e-05 2.98357e-05 2.81616e-05 2.73696e-05 2.63685e-05 2.55597e-05 2.4492e-05 2.36302e-05 2.25376e-05 2.89735e-05 2.16502e-05 2.05211e-05 2.14643e-05 1.93753e-05 1.84131e-05 1.72204e-05 1.62254e-05 1.49885e-05 1.6015e-05 1.37598e-05 1.48058e-05 1.27035e-05 1.25004e-05 1.35996e-05 4.51299e-05 4.46134e-05 4.52105e-05 4.53751e-05 4.47544e-05 4.5339e-05 4.48172e-05 2.2482e-05 1.1255e-05 1.23453e-05 1.01109e-05 2.86418e-05 2.03519e-05 3.94605e-05 4.36514e-05 4.48034e-05 4.55825e-05 1.62712e-05 2.53826e-05 3.61767e-05 4.07768e-05 4.42095e-05 4.52711e-05 4.57856e-05 4.52817e-05 2.66024e-05 4.01869e-05 9.94074e-06 1.10249e-05 8.50716e-06 9.68293e-06 1.21678e-05 1.08661e-05 4.41201e-05 4.47808e-05 4.3608e-05 4.59489e-05 4.22768e-05 4.09959e-05 4.59287e-05 4.62944e-05 4.02429e-05 3.88756e-05 4.59781e-05 4.60003e-05 4.53386e-05 4.35379e-05 1.74586e-05 1.52281e-05 3.09227e-05 2.98439e-05 4.64807e-05 2.27673e-05 3.51724e-05 4.42759e-05 4.6508e-05 3.70612e-05 4.16051e-05 4.02823e-05 3.96712e-05 8.34196e-06 9.55252e-06 3.89505e-05 3.8297e-05 4.54787e-05 4.66273e-05 4.54319e-05 4.65903e-05 4.60618e-05 4.71842e-05 4.66698e-05 4.30757e-05 4.71197e-05 2.97532e-05 3.84185e-05 2.2407e-05 2.13298e-05 4.29172e-05 4.70742e-05 3.75102e-05 3.68582e-05 3.76329e-05 3.61638e-05 3.54004e-05 3.4659e-05 3.38522e-05 3.30908e-05 3.22805e-05 3.14699e-05 3.07114e-05 2.9796e-05 3.07027e-05 2.89803e-05 2.80296e-05 2.9905e-05 3.3943e-05 4.69291e-05 4.74181e-05 4.6806e-05 3.69469e-05 1.33122e-05 1.45822e-05 2.71897e-05 2.62506e-05 2.80534e-05 2.88778e-05 2.71284e-05 2.07655e-05 4.55459e-05 4.61552e-05 4.50088e-05 4.56335e-05 4.67722e-05 4.6262e-05 2.3408e-05 3.15956e-05 3.08358e-05 2.91125e-05 4.30014e-05 4.35585e-05 1.57515e-05 4.26762e-05 3.06422e-05 3.96752e-05 3.83859e-05 2.70991e-05 2.52833e-05 7.4679e-06 5.87999e-06 1.92497e-05 2.0039e-05 4.17444e-05 4.08252e-05 3.94634e-05 4.01085e-05 1.64751e-05 1.42056e-05 1.29148e-05 4.59101e-05 4.70364e-05 4.47592e-05 7.04419e-06 8.16522e-06 1.07499e-05 4.44602e-05 4.73515e-05 4.68772e-05 4.58113e-05 4.64257e-05 1.18838e-05 1.05013e-05 4.23106e-05 4.18671e-05 3.75012e-05 3.29609e-05 4.37683e-05 4.61571e-05 4.72311e-05 5.65729e-06 6.76412e-06 4.74662e-05 4.70119e-05 4.79973e-05 4.75981e-05 4.59044e-05 2.18962e-05 2.38459e-05 1.98523e-05 2.54212e-05 1.32183e-05 3.6882e-05 4.68878e-05 3.8362e-05 3.78239e-05 5.29619e-06 2.79411e-05 9.4468e-06 8.01345e-06 9.16236e-06 6.91068e-06 6.6765e-06 7.68193e-06 4.76864e-05 4.82892e-05 4.80311e-05 3.68152e-05 3.52832e-05 3.43902e-05 3.37811e-05 4.36646e-05 4.49734e-05 2.99499e-05 4.77099e-05 4.82862e-05 3.27883e-05 4.23769e-05 4.80972e-05 4.72808e-05 4.84115e-05 1.67876e-05 1.58743e-05 1.79797e-05 3.18517e-05 4.62164e-05 1.70797e-05 1.9012e-05 3.46283e-05 2.01981e-05 4.54507e-05 4.43546e-05 4.50266e-05 4.32578e-05 2.27411e-05 4.45133e-05 3.10176e-05 4.79246e-06 6.19377e-06 3.39075e-06 4.77403e-06 4.21527e-05 3.81531e-05 2.61516e-05 4.67419e-05 4.64765e-05 4.7392e-05 2.81044e-05 4.71805e-05 4.818e-05 3.22522e-05 3.87232e-05 3.94067e-05 4.08292e-05 3.99975e-05 3.86763e-05 3.93521e-05 3.80385e-05 3.72564e-05 4.06758e-05 2.44071e-05 3.64018e-05 4.23234e-05 4.31492e-05 1.47775e-05 3.16028e-05 3.23588e-05 2.8247e-05 2.73936e-05 2.65016e-05 4.50027e-05 4.58618e-05 4.7013e-05 4.75825e-05 4.6363e-05 4.74695e-05 4.57474e-05 4.76528e-05 1.82234e-05 4.72684e-05 4.43055e-05 4.7833e-05 3.5667e-05 4.75529e-05 4.64369e-05 4.70836e-05 4.66237e-05 4.76656e-05 4.72705e-05 4.82182e-05 4.61618e-05 1.46022e-05 2.13485e-05 2.02288e-05 2.22944e-05 4.71075e-05 2.90894e-05 3.02669e-05 3.75706e-05 3.48187e-05 3.89111e-05 4.65315e-05 4.76427e-05 1.21391e-05 1.07901e-05 1.33986e-05 4.0082e-05 2.36679e-05 2.84721e-06 2.77384e-06 4.74135e-05 2.52708e-05 4.13938e-05 4.21109e-05 4.82998e-05 4.87615e-05 7.56378e-06 2.12472e-05 4.75212e-05 4.81625e-05 4.81902e-05 4.75774e-05 3.69197e-05 3.83026e-05 1.20389e-05 1.32835e-05 4.3536e-05 2.79067e-05 4.42234e-05 4.13459e-05 4.07561e-05 4.45095e-05 2.71918e-05 2.82241e-05 3.00035e-05 2.91288e-05 3.09294e-05 2.74238e-05 2.84093e-05 3.17243e-05 3.26849e-05 3.34248e-05 3.41919e-05 3.5331e-05 3.08316e-05 1.92494e-05 4.82695e-05 3.25923e-05 3.57728e-05 3.51364e-05 3.87645e-05 7.07113e-06 6.99636e-06 4.14459e-05 4.10129e-05 3.7247e-05 3.90355e-05 2.50924e-06 2.92168e-06 1.45551e-05 4.81647e-05 2.9757e-05 4.73097e-05 4.80862e-05 2.63882e-05 4.6816e-05 4.80768e-05 4.50499e-06 4.54567e-05 2.6275e-05 2.46041e-05 4.32678e-06 1.83035e-05 2.25001e-05 1.70305e-05 4.91761e-05 4.91135e-05 4.91607e-05 4.91556e-05 4.91972e-05 4.91353e-05 4.90962e-05 4.90937e-05 4.91287e-05 4.91681e-05 4.91982e-05 4.93055e-05 4.90195e-05 4.19373e-05 3.65994e-05 2.33734e-05 1.5544e-05 1.78118e-05 2.46907e-05 4.34204e-05 3.14875e-05 4.41849e-05 1.715e-05 3.98444e-05 3.92619e-05 1.34713e-05 3.91168e-05 2.68834e-05 4.51426e-05 3.33612e-05 4.41369e-05 2.42742e-05 4.10548e-05 3.87837e-05 4.2389e-05 4.56695e-05 3.23411e-05 3.32043e-05 2.89622e-05 3.108e-05 4.82424e-05 3.54889e-05 2.34484e-05 1.0213e-05 3.80845e-05 2.72083e-05 4.25716e-05 1.82271e-05 3.25259e-05 1.39476e-05 2.81616e-05 1.96403e-05 1.45141e-05 7.07192e-06 3.50536e-05 5.46693e-06 4.65355e-05 4.28189e-05 1.4675e-05 2.12228e-05 3.8508e-05 4.04005e-05 4.91592e-05 3.44091e-05 3.95508e-05 4.49466e-05 2.5739e-05 3.79949e-05 4.16731e-05 4.91979e-05 4.8257e-05 3.66457e-05 4.82992e-05 2.20068e-05 2.6522e-05 3.33107e-05 4.84794e-05 2.62813e-05 4.82763e-05 4.92121e-05 1.86673e-05 3.14876e-05 4.36397e-05 3.59902e-05 3.29705e-05 3.60515e-05 2.1213e-06 4.42985e-05 1.15738e-05 2.34968e-05 3.93922e-05 4.50824e-05 4.57077e-05 4.14505e-05 4.92042e-05 4.9173e-05 4.83044e-05 3.80452e-05 1.21195e-05 3.7635e-05 4.28888e-05 3.35406e-05 4.69786e-05 3.77718e-05 3.62544e-05 3.61792e-05 4.38692e-05 3.24123e-05 4.94797e-06 4.72654e-06 4.2824e-05 4.79662e-05 4.23067e-05 1.12976e-05 3.97026e-05 3.15809e-05 4.53751e-05 3.4553e-05 4.13739e-05 4.49315e-05 1.08573e-05 4.17394e-05 4.83095e-05 2.4413e-05 4.09679e-05 4.92876e-05 2.8282e-05 3.78555e-05 3.41395e-05 3.06466e-05 4.70141e-06 4.47969e-06 4.31643e-05 9.00665e-06 2.46751e-05 4.85057e-05 3.99127e-05 3.9188e-05 2.07336e-05 4.53943e-05 4.58682e-06 4.39982e-05 1.2403e-05 2.53507e-05 4.84365e-05 8.67429e-06 4.47328e-05 4.92501e-05 3.35249e-05 2.09736e-06 3.54953e-05 4.84563e-05 4.83345e-05 2.10685e-06 4.57419e-05 4.84969e-05 3.69235e-05 2.1364e-06 4.15841e-05 4.84596e-05 4.92389e-05 4.30722e-05 2.98063e-05 8.28132e-06 4.44824e-06 3.89613e-05 4.62353e-05 4.46915e-05 9.26766e-06 4.3691e-05 3.18187e-05 4.75734e-05 3.3996e-05 4.85202e-05 4.92679e-05 3.65253e-05 4.92729e-05 4.83508e-05 4.85181e-05 3.00075e-05 4.85248e-05 3.20557e-05 1.97348e-05 2.41553e-05 2.8944e-05 2.50932e-05 4.28751e-05 4.85356e-05 3.33432e-05 8.4636e-06 3.1174e-05 5.89245e-06 4.65814e-05 1.90646e-05 6.20248e-06 4.41015e-05 4.2119e-05 4.00007e-05 2.13543e-05 2.08578e-05 2.70436e-05 4.83987e-05 4.77476e-05 4.858e-05 4.10107e-05 1.825e-05 2.50825e-05 4.17321e-05 4.56681e-05 2.58216e-05 2.70413e-05 1.85182e-05