TITLE = "mos2d"
VARIABLES = "x", "y", "Acceptors", "AtContactNode", "BodyDoping", "ContactNSurfaceNormal_x", "ContactNSurfaceNormal_y", "ContactSurfaceArea", "Donors", "DrainDoping", "DrainDoping1", "DrainDoping2", "Interface_charge", "IntrinsicCharge", "IntrinsicCharge:Potential", "IntrinsicElectrons", "IntrinsicElectrons:Potential", "IntrinsicHoles", "IntrinsicHoles:Potential", "NSurfaceNormal_x", "NSurfaceNormal_y", "NetDoping", "NodeVolume", "Potential", "PotentialIntrinsicCharge", "PotentialIntrinsicCharge:Potential", "Potential_prev", "SourceDoping", "SourceDoping1", "SourceDoping2", "SurfaceArea", "bodynodemodel", "bodynodemodel:Potential", "coordinate_index", "drainnodemodel", "drainnodemodel:Potential", "gatenodemodel", "gatenodemodel:Potential", "node_index", "sourcenodemodel", "sourcenodemodel:Potential", "well_Doping", "EParallel", "EdgeCouple", "EdgeInverseLength", "EdgeLength", "EdgeNodeVolume", "ElectricField", "ElectricField:Potential@n0", "ElectricField:Potential@n1", "Potential@n0", "Potential@n1", "PotentialEdgeFlux", "PotentialEdgeFlux:Potential@n0", "PotentialEdgeFlux:Potential@n1", "contactcharge_edge", "contactcharge_edge:Potential@n0", "contactcharge_edge:Potential@n1", "edge_index", "mu_n", "mu_n:Potential@n0", "mu_n:Potential@n1", "mu_p", "mu_p:Potential@n0", "mu_p:Potential@n1", "unitx", "unity", "ElementEdgeCouple", "ElementNodeVolume"
ZONE T="bulk" NODES=1675, ELEMENTS=3188, DATAPACKING=BLOCK, ZONETYPE=FETRIANGLE, VARLOCATION=([68,69]=CELLCENTERED)
0 7.8e-05 7.8e-05 6.8e-05 1e-05 0 3e-06 6e-06 9e-06 1.2e-05 1.5e-05 1.8e-05 2.1e-05 2.4e-05 2.7e-05 3e-05 3.3e-05 3.6e-05 3.9e-05 4.2e-05 4.5e-05 4.8e-05 5.1e-05 5.4e-05 5.7e-05 6e-05 6.3e-05 6.6e-05 6.9e-05 7.2e-05 7.5e-05 7.8e-05 7.8e-05 7.8e-05 7.8e-05 7.8e-05 7.8e-05 7.8e-05 7.8e-05 7.8e-05 7.8e-05 7.8e-05 7.8e-05 7.8e-05 7.8e-05 7.8e-05 7.8e-05 7.8e-05 7.8e-05 7.8e-05 7.8e-05 7.8e-05 7.8e-05 7.8e-05 7.8e-05 7.8e-05 7.8e-05 7.8e-05 7.7e-05 7.6e-05 7.5e-05 7.4e-05 7.3e-05 7.2e-05 7.1e-05 7e-05 6.9e-05 6.7e-05 6.6e-05 6.5e-05 6.4e-05 6.3e-05 6.2e-05 6.1e-05 6e-05 5.9e-05 5.8e-05 5.7e-05 5.6e-05 5.5e-05 5.4e-05 5.3e-05 5.2e-05 5.1e-05 5e-05 4.9e-05 4.8e-05 4.7e-05 4.6e-05 4.5e-05 4.4e-05 4.3e-05 4.2e-05 4.1e-05 4e-05 3.9e-05 3.8e-05 3.7e-05 3.6e-05 3.5e-05 3.4e-05 3.3e-05 3.2e-05 3.1e-05 3e-05 2.9e-05 2.8e-05 2.7e-05 2.6e-05 2.5e-05 2.4e-05 2.3e-05 2.2e-05 2.1e-05 2e-05 1.9e-05 1.8e-05 1.7e-05 1.6e-05 1.5e-05 1.4e-05 1.3e-05 1.2e-05 1.1e-05 9e-06 8e-06 7e-06 6e-06 5e-06 4e-06 3e-06 2e-06 1e-06 0 0 0 0 0 0 0 0 0 0 0 0 0 0 0 0 0 0 0 0 0 0 0 0 0 0 0 2.45061e-05 3.05e-05 3.64356e-05 4.25e-05 4.84758e-05 5.45445e-05 1.84861e-05 1.60024e-06 7.64021e-05 5.94391e-05 1.35e-05 6.46333e-05 1.42382e-06 7.65079e-05 2.8581e-05 4.05538e-05 5.24571e-05 6.85e-05 9.5e-06 1.08969e-06 7.69475e-05 7.6215e-05 1.80518e-06 1.92911e-05 6.48248e-06 7.1706e-05 2.15258e-05 2.76162e-05 3.36099e-05 3.96084e-05 4.55413e-05 5.154e-05 6.14713e-05 9.50203e-07 7.70049e-05 1.05925e-05 7.57822e-05 3.48879e-06 7.44344e-05 2.09287e-06 1.42789e-06 7.6365e-05 1.79916e-06 7.62036e-05 1.25797e-06 7.6892e-05 1.00115e-06 7.69348e-05 6.75477e-05 4.64629e-05 3.45897e-05 1.15e-05 1.55e-05 6.25154e-05 6.63743e-05 5.73511e-05 4.67649e-06 7.33215e-05 1.5e-06 7.65076e-05 7.04583e-05 6.90099e-05 6.61962e-05 6.76078e-05 6.49001e-05 6.62648e-05 6.36514e-05 6.49311e-05 6.24406e-05 6.36743e-05 6.13674e-05 6.23969e-05 5.99397e-05 6.12711e-05 5.90507e-05 6.00917e-05 5.80037e-05 5.90379e-05 5.69934e-05 5.79951e-05 5.6026e-05 5.70576e-05 5.5091e-05 5.60938e-05 5.41568e-05 5.31617e-05 5.22391e-05 5.12405e-05 5.03408e-05 4.93271e-05 4.84288e-05 4.74089e-05 4.65181e-05 4.54949e-05 4.46045e-05 4.35856e-05 4.26792e-05 4.17377e-05 4.07651e-05 3.97706e-05 3.88365e-05 3.78505e-05 3.69431e-05 3.59346e-05 3.50467e-05 3.40296e-05 3.3144e-05 3.21345e-05 3.12438e-05 3.02359e-05 2.93464e-05 2.83409e-05 2.74416e-05 2.64478e-05 2.55919e-05 5.51273e-05 4.75098e-05 4.17694e-05 3.60389e-05 2.84898e-05 2.45714e-05 2.37166e-05 5.70135e-05 5.60888e-05 5.78774e-05 5.70095e-05 5.87253e-05 2.26868e-05 2.17996e-05 2.2783e-05 2.09786e-05 2.1916e-05 2.01834e-05 2.10753e-05 1.9408e-05 5.7893e-05 5.95487e-05 4.83178e-05 1.9997e-05 2.02575e-05 1.8636e-05 2.35781e-05 5.87486e-05 5.71544e-05 6.03863e-05 1.77684e-05 1.70436e-05 6.11766e-05 6.19593e-05 3.11126e-05 3.66094e-05 4.25762e-05 1.94977e-05 2.10619e-05 1.61507e-05 1.54291e-05 6.11895e-05 6.27054e-05 6.27881e-05 2.03241e-05 2.18301e-05 6.19579e-05 6.34345e-05 1.454e-05 1.38667e-05 1.46944e-05 1.32284e-05 1.39348e-05 1.25114e-05 5.69831e-05 2.11266e-05 2.25846e-05 1.3236e-05 1.18101e-05 6.09548e-05 6.26885e-05 6.41359e-05 6.48827e-05 6.55743e-05 6.13595e-05 6.63261e-05 6.70167e-05 1.29291e-05 2.18999e-05 2.3324e-05 1.25699e-05 1.11777e-05 1.3668e-05 6.33918e-05 2.4015e-05 2.47461e-05 2.5441e-05 2.61714e-05 2.68674e-05 2.75987e-05 2.82955e-05 2.90375e-05 2.97234e-05 3.04695e-05 3.11549e-05 3.18822e-05 3.2588e-05 3.3309e-05 3.4021e-05 3.47424e-05 3.54188e-05 3.61944e-05 3.67679e-05 3.76191e-05 3.8225e-05 3.90484e-05 3.9748e-05 4.04989e-05 4.12023e-05 4.19419e-05 4.26438e-05 4.33816e-05 4.40833e-05 4.48207e-05 4.55223e-05 4.62595e-05 4.6961e-05 4.76766e-05 1.11738e-05 4.69672e-05 4.83584e-05 4.12332e-05 1.2076e-05 1.27849e-05 2.26444e-05 2.12617e-05 3.54788e-05 2.83147e-05 6.77611e-05 6.84513e-05 6.77613e-05 6.91334e-05 1.19157e-05 1.0574e-05 1.32676e-05 4.84029e-05 6.8455e-05 1.10774e-05 1.18598e-05 6.97325e-05 4.76729e-05 4.90212e-05 2.19795e-05 2.06099e-05 1.26528e-05 1.3947e-05 6.92556e-05 6.85065e-05 6.90472e-05 7.03243e-05 6.78707e-05 3.18596e-05 4.479e-05 1.03433e-05 3.88161e-05 6.48648e-05 1.01005e-05 1.09117e-05 4.83609e-05 4.96671e-05 5.03353e-05 4.7051e-05 5.09776e-05 5.16358e-05 5.22757e-05 5.29316e-05 5.36087e-05 5.42574e-05 5.48851e-05 5.3591e-05 2.61612e-05 6.00774e-05 2.12966e-05 2.25369e-05 2.00468e-05 5.49454e-05 1.33533e-05 6.96636e-05 7.09054e-05 1.26215e-05 1.17254e-05 1.35178e-05 1.25704e-05 1.45269e-05 1.34922e-05 1.55091e-05 1.43495e-05 1.65169e-05 1.53728e-05 1.75506e-05 1.63669e-05 1.86163e-05 1.40335e-05 1.51354e-05 1.14058e-05 1.27768e-05 7.00147e-05 6.92537e-05 1.46043e-05 7.10402e-05 5.54145e-05 1.52021e-05 3.83933e-05 3.261e-05 5.92238e-05 1.21517e-05 5.2916e-05 5.01949e-05 1.98217e-05 9.81931e-06 9.22396e-06 8.47641e-06 7.8859e-06 7.11901e-06 6.5426e-06 7.28796e-06 5.95903e-05 4.77404e-05 4.64806e-05 3.22811e-05 1.38805e-05 5.99103e-06 6.70375e-06 9.1064e-06 2.73677e-05 1.62813e-05 4.77215e-05 4.91037e-05 4.19319e-05 3.47279e-05 2.89967e-05 5.21483e-05 2.06787e-05 1.94778e-05 8.30683e-06 5.42649e-05 6.75045e-05 7.7441e-06 1.4033e-05 7.02755e-05 7.14999e-05 6.90526e-05 7.2124e-05 1.14901e-05 7.26981e-05 7.07826e-05 7.00555e-05 5.42392e-06 4.84416e-05 4.98744e-05 5.56369e-05 5.63103e-05 6.34524e-06 6.99344e-06 1.04086e-05 6.84721e-05 6.92987e-05 1.98045e-05 2.08855e-05 2.23353e-05 2.3228e-05 2.19622e-05 2.43191e-05 2.55212e-05 2.66769e-05 2.78886e-05 2.90458e-05 3.02615e-05 3.14196e-05 3.26526e-05 3.37991e-05 3.50302e-05 3.61788e-05 3.74106e-05 3.85571e-05 3.97447e-05 4.09386e-05 4.2132e-05 4.33237e-05 4.44686e-05 4.56954e-05 4.69156e-05 4.80882e-05 2.32034e-05 3.73908e-05 3.26702e-05 6.14144e-06 7.34118e-06 7.14916e-05 4.43967e-05 2.7828e-05 1.52474e-05 4.71025e-05 4.58952e-05 4.52688e-05 4.46892e-05 1.49843e-05 4.927e-06 4.4061e-05 4.34895e-05 6.76674e-05 6.85208e-05 6.6847e-05 6.77135e-05 6.94508e-05 6.86671e-05 6.68376e-05 6.77703e-05 6.96609e-05 6.87347e-05 7.09672e-05 2.01201e-05 2.13509e-05 1.89349e-05 4.60958e-06 1.56447e-05 2.36726e-05 4.92982e-05 5.04896e-05 4.92519e-05 5.17977e-05 4.2856e-05 4.22735e-05 4.16699e-05 4.10705e-05 4.04469e-05 3.98805e-05 3.92453e-05 3.8681e-05 3.80447e-05 3.74889e-05 3.6882e-05 3.63254e-05 3.5777e-05 3.51357e-05 3.45647e-05 3.38814e-05 3.32729e-05 3.26863e-05 3.20617e-05 3.14793e-05 3.08644e-05 3.03032e-05 2.96582e-05 2.90975e-05 2.84573e-05 2.79241e-05 2.72902e-05 2.67441e-05 5.13384e-05 2.54711e-05 2.16631e-05 1.43987e-05 7.30012e-06 3.39216e-05 1.46816e-05 1.34954e-05 7.33244e-05 6.59105e-05 6.4985e-05 7.0638e-05 6.97303e-05 6.7755e-05 6.87792e-05 4.90547e-05 4.75202e-05 6.96523e-05 6.84791e-05 5.29266e-05 5.35805e-05 5.70121e-05 5.76617e-05 9.10072e-06 1.01578e-05 2.6115e-05 2.55731e-05 2.90051e-05 7.15283e-05 5.57104e-06 6.19512e-06 4.55719e-05 2.26675e-05 5.07231e-05 8.09124e-06 3.85737e-05 5.60177e-06 4.43925e-06 6.51715e-06 6.56373e-05 7.39292e-05 7.32637e-05 1.88103e-05 7.22971e-05 4.41229e-05 4.94726e-06 1.74425e-05 3.01307e-05 5.04608e-05 5.33953e-05 7.66652e-06 6.84617e-06 3.81441e-05 6.673e-05 4.65178e-05 4.76828e-05 8.05631e-06 4.33872e-05 7.08182e-05 6.98438e-05 5.34643e-06 6.01168e-06 1.58021e-05 6.40367e-05 1.55634e-05 3.21033e-05 4.04984e-05 1.95388e-05 1.84022e-05 1.60474e-05 9.34616e-06 7.29964e-05 7.22187e-05 5.07849e-06 6.25786e-06 3.45485e-05 2.61855e-05 5.3011e-05 7.36649e-05 6.24588e-06 7.06544e-06 7.06675e-06 3.7715e-06 2.66709e-05 1.83158e-05 2.84929e-05 8.35e-06 1.41457e-05 1.29854e-05 2.50291e-05 2.44205e-05 2.38839e-05 7.44536e-05 1.75655e-05 6.80864e-06 6.31024e-05 4.9815e-05 3.98409e-05 1.88106e-05 2.54645e-05 5.63616e-05 5.77717e-05 8.25422e-06 7.28967e-05 2.25583e-05 3.37148e-05 5.15559e-05 5.25531e-05 4.71224e-05 7.195e-05 7.09537e-05 3.94986e-06 4.97252e-05 1.01272e-05 7.0337e-05 7.52375e-06 5.78537e-06 4.76097e-06 6.40202e-05 5.98516e-06 6.90485e-05 6.79074e-05 6.73353e-05 6.67451e-05 6.61972e-05 6.55687e-05 6.50424e-05 6.56285e-05 6.44582e-05 6.38691e-05 6.3284e-05 6.27001e-05 6.21056e-05 6.1524e-05 6.09282e-05 6.03538e-05 5.9752e-05 6.05128e-05 5.91889e-05 5.85768e-05 5.79988e-05 6.50447e-05 6.25549e-05 6.09678e-05 7.02438e-05 5.74167e-05 5.67878e-05 5.799e-05 6.32705e-05 5.86079e-05 7.3798e-05 7.26759e-05 7.49263e-05 3.74489e-05 1.2338e-05 1.18362e-05 1.1201e-05 1.06966e-05 1.00799e-05 9.58937e-06 6.23186e-05 7.4517e-05 7.39583e-05 4.22005e-06 1.63523e-05 7.25362e-05 7.50756e-05 7.45171e-05 6.61612e-05 4.43291e-06 4.8271e-05 4.88277e-05 4.94031e-05 4.99611e-05 5.05079e-05 5.10854e-05 5.1636e-05 5.22117e-05 5.2773e-05 5.33393e-05 5.49148e-05 7.38167e-05 6.2002e-05 3.7707e-06 7.34062e-05 7.2438e-05 5.18418e-06 7.31116e-05 5.38952e-05 5.44733e-05 5.50207e-05 4.59757e-05 1.35425e-05 1.46376e-05 6.58031e-05 7.43564e-05 1.68844e-05 5.10042e-05 4.78591e-05 4.92173e-05 4.64349e-05 7.4097e-05 7.33656e-05 2.45538e-05 5.62093e-05 4.41268e-05 7.32061e-05 7.142e-05 7.33491e-05 1.06744e-05 1.0555e-05 6.87654e-05 6.99078e-05 7.21182e-05 7.10938e-05 7.33157e-05 7.23047e-05 3.589e-06 6.46651e-05 9.49236e-06 1.24684e-05 2.32819e-05 2.27741e-05 2.37993e-05 2.56044e-05 4.37577e-06 6.01959e-06 8.01821e-06 6.96001e-05 4.99517e-05 4.49105e-06 6.22263e-05 6.14289e-05 6.31104e-05 2.33726e-05 5.69038e-05 7.27418e-05 5.81866e-05 5.89838e-05 1.89964e-05 1.7877e-05 2.00436e-05 4.57144e-06 2.35469e-05 2.55676e-05 2.16186e-05 5.22457e-05 5.29564e-05 5.4328e-05 4.13145e-06 6.73255e-05 1.72779e-05 1.67483e-05 7.58758e-05 3.06111e-06 5.16574e-05 6.57146e-05 2.67076e-05 5.32251e-05 7.05885e-05 6.62308e-05 6.56248e-05 6.4431e-05 6.50363e-05 1.21551e-05 1.86468e-05 5.94554e-05 6.02691e-05 6.08288e-05 1.02844e-05 9.2204e-06 8.54066e-06 8.14372e-06 6.36409e-05 7.57019e-05 6.6278e-05 6.15334e-05 2.58644e-05 2.45536e-05 2.71295e-05 4.0993e-06 4.65671e-05 9.12503e-06 9.87428e-06 9.12761e-06 5.7091e-05 5.85846e-05 5.9235e-05 5.17633e-05 2.22243e-05 2.16523e-05 7.41859e-05 2.42695e-05 4.93379e-06 6.23066e-05 7.22957e-05 5.38402e-05 5.09252e-05 5.27618e-05 4.90299e-05 1.73639e-05 1.95471e-05 5.36215e-05 5.50562e-05 5.42656e-05 7.4989e-05 3.72044e-06 7.5101e-05 7.14584e-05 7.47095e-05 7.40121e-05 7.53259e-05 2.70923e-06 6.43835e-05 6.76457e-05 4.94028e-05 2.60337e-05 6.11773e-05 7.00971e-05 2.66245e-05 2.76086e-05 5.33596e-05 7.21339e-05 2.26105e-05 7.26238e-05 3.01564e-06 7.55444e-05 7.13948e-05 5.08111e-06 3.58344e-06 6.74662e-06 7.47813e-05 9.63042e-06 6.37819e-05 7.20741e-05 2.2908e-05 3.78672e-06 2.45787e-06 3.21814e-06 7.61096e-05 7.54412e-05 7.64507e-05 7.64806e-05 3.46666e-06 2.86058e-06 2.37372e-06 5.56046e-05 5.61691e-05 5.55742e-05 5.73944e-05 5.83571e-05 5.93443e-05 5.66658e-05 1.04946e-05 1.12664e-05 8.47092e-06 6.46152e-05 7.08989e-05 1.29807e-05 1.60897e-05 2.11882e-05 7.52991e-05 3.03798e-05 2.94956e-05 2.76909e-05 2.86302e-05 3.04228e-05 2.70072e-05 2.78393e-05 2.63222e-05 2.57341e-05 3.41544e-05 3.51431e-05 3.69445e-05 3.60987e-05 3.78153e-05 3.4357e-05 3.70173e-05 3.86646e-05 3.94776e-05 4.03066e-05 4.11374e-05 4.19677e-05 4.27972e-05 4.36296e-05 4.446e-05 4.36171e-05 4.5325e-05 4.51933e-05 4.02984e-05 3.78894e-05 3.62592e-05 4.27329e-05 3.3338e-05 3.22777e-05 3.35776e-05 3.21025e-05 3.28334e-05 3.13658e-05 3.62783e-05 3.51345e-05 3.2884e-05 3.40529e-05 3.18921e-05 3.6312e-05 3.06799e-05 3.93174e-05 3.8772e-05 3.76198e-05 3.8127e-05 3.99295e-05 4.10687e-05 4.05402e-05 4.16305e-05 4.23422e-05 3.69926e-05 3.63714e-05 3.57505e-05 3.51384e-05 3.39935e-05 3.45528e-05 3.33237e-05 3.27292e-05 3.16167e-05 3.21108e-05 4.94297e-05 4.55404e-05 4.4961e-05 4.63386e-05 3.98021e-05 3.91557e-05 4.05033e-05 4.1886e-05 3.79334e-05 3.69703e-05 3.60324e-05 3.48196e-05 3.40463e-05 3.34817e-05 3.1972e-05 4.26637e-05 2.69877e-05 6.21199e-05 6.15402e-05 6.042e-05 6.10016e-05 6.26266e-05 6.37059e-05 6.44118e-05 6.48426e-05 6.61213e-05 8.77753e-06 1.18101e-06 7.90863e-06 2.73203e-05 2.78169e-05 2.90025e-05 2.9812e-05 3.01055e-05 3.10247e-05 1.13809e-05 2.7048e-05 7.1924e-05 7.34392e-05 7.47172e-05 1.78077e-06 2.19157e-06 1.66214e-06 2.44818e-05 3.55024e-05 1.96413e-05 1.81571e-05 1.72709e-05 1.67017e-05 1.75141e-05 1.62274e-05 1.69742e-05 1.83192e-05 1.78041e-05 1.63631e-05 6.84797e-05 4.78059e-05 5.32275e-05 5.42033e-05 4.53234e-05 4.47397e-05 4.36068e-05 4.41447e-05 1.52272e-05 1.46156e-05 1.35358e-05 6.88883e-05 2.27972e-05 2.44821e-05 2.34987e-05 2.47771e-05 7.4318e-05 2.40553e-05 2.34117e-05 3.9511e-05 4.11542e-05 1.7937e-05 5.98138e-05 7.43037e-06 6.91627e-06 5.7446e-06 5.08565e-06 6.8018e-06 7.95576e-06 1.46064e-05 1.38851e-05 2.94556e-05 5.79853e-05 3.74399e-05 3.96774e-05 3.85586e-05 4.07213e-05 4.18437e-05 4.28977e-05 4.40074e-05 4.50663e-05 3.96443e-05 4.80975e-05 5.04421e-05 4.9322e-05 5.15714e-05 5.27036e-05 5.04997e-05 5.37584e-05 4.8271e-05 4.72471e-05 2.96458e-05 5.63234e-05 5.21138e-05 4.2914e-05 1.8714e-06 2.89649e-06 3.12319e-05 3.06477e-05 2.98312e-05 2.9286e-05 2.89294e-05 7.54953e-06 6.07995e-06 3.3004e-06 4.82597e-06 7.35984e-06 6.0754e-06 3.78809e-05 6.37333e-05 6.21946e-05 7.05233e-05 6.84745e-05 1.39335e-06 7.65862e-05 8.91503e-06 3.53344e-05 4.94519e-05 5.10005e-05 5.37329e-05 5.53537e-05 5.66608e-05 5.52196e-05 5.77978e-05 5.61903e-05 5.92928e-05 5.45597e-05 5.54737e-05 5.75028e-05 5.78037e-05 7.59372e-05 1.16757e-05 1.30858e-05 4.34936e-05 4.20399e-05 3.91862e-05 4.06407e-05 3.78794e-05 3.90294e-05 4.19839e-05 3.62281e-05 3.51166e-05 4.49489e-05 4.34941e-05 1.14059e-05 7.07427e-05 6.99038e-05 4.11018e-05 3.15349e-05 3.00552e-05 2.72209e-05 2.86414e-05 2.5866e-05 2.44395e-05 2.3246e-05 3.11461e-05 2.94781e-05 2.16206e-05 2.44821e-05 3.31305e-05 2.14506e-06 1.89907e-05 2.26815e-05 1.88354e-05 2.20936e-05 4.79194e-05 6.48049e-05 6.35227e-05 5.28294e-05 6.49015e-05 4.90511e-05 6.03184e-05 4.42899e-05 4.59574e-05 5.7684e-06 9.3038e-06 3.15675e-05 1.29833e-06 7.65095e-05 2.03587e-06 7.63233e-05 7.45228e-05 1.30033e-06 7.61994e-05 1.20219e-06 2.70676e-06 7.69303e-05 1.97672e-06 4.36805e-06 7.5686e-05 7.69977e-05 2.66209e-05 4.56742e-05 3.7593e-05 5.82792e-05 2.94856e-05 5.55766e-05 5.61732e-05 1.92209e-05 1.82293e-05 1.8979e-05 1.70871e-05 1.78778e-05 1.53002e-05 5.51616e-06 4.07634e-06 1.83081e-05 5.83886e-05 5.5001e-05 5.42816e-05 1.65036e-05 1.91748e-05 2.06691e-05 9.92916e-06 6.57018e-05 6.69931e-05 6.62585e-05 5.39576e-05 5.82306e-06 2.99639e-06 1.28452e-05 4.31343e-05 2.0457e-05 1.75762e-06 7.44129e-05 4.16946e-05 4.89381e-05 3.5833e-05 7.15659e-05 1.04639e-05 7.20825e-05 1.86329e-05 2.1885e-05 2.41791e-05 5.16503e-05 2.69591e-05 1.7819e-05 5.87771e-05 3.30361e-05 4.31371e-05 2.08167e-05 5.59041e-05 6.79038e-05 6.12373e-05 2.5e-06 2.32971e-05 2.85146e-05 1.58145e-05 6.34762e-05 4.36796e-05 1.45174e-05 5.10416e-05 1.69785e-05 7.50231e-06 8.4789e-06 7.54824e-05 1.05e-05 6.74356e-05 6.77751e-05 1.25e-05 1.45e-05 6.35248e-05 1.65607e-05 5.83697e-05 4.34126e-05 2.05e-05 3.97379e-05 5.05056e-05 8.38862e-06 3.75104e-05 4.95e-05 3.73166e-05 4.80304e-06 7.30457e-05 3.45478e-05 7.16284e-05 1.2135e-06 7.36239e-05 4.60491e-05 4.71309e-05 4.78279e-05 5.17902e-06 6.58841e-05 3.49361e-05 5.15986e-05 1.06626e-05 2.06269e-05 2.49581e-05 6.50014e-05 4.58391e-05 1.60517e-05 4.88994e-05 3.31451e-06 7.58038e-05 7.27501e-05 7.15992e-05 1.52724e-05 2.86707e-05 3.00854e-05 2.42577e-05 3.84955e-06 6.3841e-05 3.26544e-05 3.13885e-05 5.01477e-06 2.94063e-05 6.41973e-05 1.85227e-05 2.54544e-05 6.15283e-05 5.97115e-05 5.22938e-05 5.91857e-05 5.03585e-05 5.27491e-05 5.12911e-05 5.05303e-05 4.63579e-05 3.86115e-05 4.43333e-05 4.65133e-05 6.03752e-05 4.3412e-05 4.03939e-05 5.0234e-05 2.55196e-05 4.19578e-05 4.67013e-05 3.05732e-05 4.96881e-05 2.75678e-05 4.82824e-05 3.50645e-05 3.4093e-05 3.03871e-05 5.40285e-05 4.0851e-05 1.75641e-05 3.86222e-05 4.46349e-05 6.67661e-05 2.56538e-05 7.02844e-05 7.55428e-06 1.40272e-06 6.60334e-05 9.89534e-06 5.49812e-05 6.68714e-05 6.77977e-05 1.37324e-05 1.74199e-05 5.21711e-05 7.15373e-06 1.25949e-05 1.97746e-05 6.70636e-05 9.10411e-06 3.64729e-05 4.49166e-05 7.05606e-05 3.32934e-05 4.5348e-05 7.46209e-05 5.25e-05 7.67514e-05 5.9604e-05 4.74446e-05 7.33819e-05 6.88286e-05 1.6426e-05 1.11079e-05 1.16887e-05 2.60677e-06 3.98623e-05 6.49839e-05 4.3547e-05 5.35858e-05 1.97456e-05 4.65106e-05 6.66137e-05 6.99772e-05 7.14992e-05 4.2101e-05 4.45968e-05 5.44135e-05 2.64709e-05 5.48687e-05 5.64227e-05 3.37492e-06 2.56509e-05 5.55083e-05 2.21688e-05 4.22618e-05 2.2681e-06 2.47907e-05 1.65487e-05 5.61863e-05 4.14956e-06 2.77833e-05 7.78061e-06 7.70062e-05 1.86214e-05 5.56996e-05 8.91357e-06 3.15184e-05 6.39263e-05 6.12617e-05 1.21064e-05 6.33734e-05 7.59877e-05 2.37422e-06 3.68796e-06 7.21679e-05 7.42133e-05 5.88187e-05 7.25541e-05 9.00536e-06 4.14013e-05 1.973e-05 7.50371e-05 2.55057e-05 2.80998e-05 1.59644e-05 2.18725e-05 1.57359e-05 5.164e-05 3.93251e-05 1.09763e-05 9.82276e-06 6.73249e-05 1.62593e-05 3.09993e-05 7.99084e-07 5.97744e-05 1.3e-05 8.41032e-06 4.051e-05 7.50802e-05 1.05271e-05 7.72319e-05 2.0897e-05 3.7e-05 1.96743e-05 7.71262e-05 8.71492e-06 8.00522e-07 6.30035e-05 6.05045e-05 9.73253e-06 7.37798e-05 3.85347e-05 5.6765e-05 6.93188e-05 6.63505e-05 6.28839e-05 1.95067e-05 1.50575e-05 1.19749e-05 1.84541e-05 7.60872e-05 1.40348e-05 7.68907e-05 5.7927e-05 4.33475e-06 1.56686e-05 2.36701e-05 2.09382e-05 5.99401e-05 3.15547e-05 1.68115e-05 2.82017e-05 6.20934e-05 2.31777e-05 5.64455e-05 2.63626e-06 3.33701e-05 6.67779e-05 5.55525e-05 1.74821e-05 5.80115e-05 5.74304e-05 6.01405e-05 6.26117e-05 7.321e-05 2.87848e-05 2.08452e-05 3.59875e-05 2.26962e-06 7.57303e-05 1.18753e-05 6.8997e-05 6.95505e-07 6.47919e-05 1.094e-05 3.25e-05 6.79128e-05 7.57272e-05 2.4661e-05 6.0271e-05 6.17038e-05 8.9036e-06 2.48983e-06 1.51687e-05 7.13549e-05 2.49759e-05 5.1005e-05 3.64291e-05 3.53869e-05 6.73002e-05 2.67401e-05 1.67852e-05 5.86612e-05 6.19988e-05 3.45099e-05 2.86395e-06 1.73646e-05 6.08614e-05 1.25446e-05 2.01155e-06 9.67986e-06 7.48198e-05 2.50231e-05 3.82996e-05 4.66103e-05 2.25231e-05 4.71997e-05 5.57571e-05 6.68119e-05 2.61589e-05 1.51017e-05 3.36138e-06 2.04021e-05 6.20467e-05 2.35875e-05 7.07983e-05 7.7268e-05 2.48472e-05 7.60953e-05 4.10598e-05 6.56191e-05 5.9884e-05 3.08487e-05 2.40067e-05 5.04604e-05 5.9726e-05 1.16594e-05 3.22093e-06 6.07525e-05 9.90907e-06 1.79573e-06 6.30289e-05 3.74215e-05 6.20021e-05 7.73542e-05 4.86175e-05 5.4889e-05 6.14589e-05 8.26619e-07 1.36314e-05 2.57221e-05 2.69349e-05 2.3065e-06 7.41713e-05 7.58232e-05 3.18363e-05 3.69592e-06 6.30499e-05 5.94067e-05 2.65151e-05 6.15652e-05 7.48616e-05 4.02408e-06 7.34155e-05 5.2223e-05 3.44985e-05 5.83645e-06 4.64842e-05 1.64746e-05 5.75362e-05 5.73422e-06 3.3152e-05 1.78921e-05 5.03467e-05 3.98143e-06 7.61469e-05 1.56864e-05 2.22718e-05 6.39822e-05 6.02013e-05 7.3784e-05 1.40434e-05 7.54148e-05 2.08544e-05 2.84555e-05 2.47462e-06 5.9e-05 3e-06 9.03875e-06 6.48369e-05 5.40926e-05 1.09383e-05 4.5612e-05 3.69789e-05 5.24652e-05 2.82384e-05 4.15273e-05 7.55132e-05 3.08337e-05 4.24024e-05 6.55109e-05 4.93101e-05 7.25e-05 6.09092e-07 4.27369e-05 7.60942e-05 4.2756e-05 5.22303e-05 3.08843e-05 3.52206e-05 3.54207e-05