TITLE = "mos2d"
VARIABLES = "x", "y", "Acceptors", "AtContactNode", "BodyDoping", "ContactNSurfaceNormal_x", "ContactNSurfaceNormal_y", "ContactSurfaceArea", "Donors", "DrainDoping", "DrainDoping1", "DrainDoping2", "Interface_charge", "IntrinsicCharge", "IntrinsicCharge:Potential", "IntrinsicElectrons", "IntrinsicElectrons:Potential", "IntrinsicHoles", "IntrinsicHoles:Potential", "NSurfaceNormal_x", "NSurfaceNormal_y", "NetDoping", "NodeVolume", "Potential", "PotentialIntrinsicCharge", "PotentialIntrinsicCharge:Potential", "Potential_prev", "SourceDoping", "SourceDoping1", "SourceDoping2", "SurfaceArea", "bodynodemodel", "bodynodemodel:Potential", "coordinate_index", "drainnodemodel", "drainnodemodel:Potential", "gatenodemodel", "gatenodemodel:Potential", "node_index", "sourcenodemodel", "sourcenodemodel:Potential", "well_Doping", "EParallel", "EdgeCouple", "EdgeInverseLength", "EdgeLength", "EdgeNodeVolume", "ElectricField", "ElectricField:Potential@n0", "ElectricField:Potential@n1", "Potential@n0", "Potential@n1", "PotentialEdgeFlux", "PotentialEdgeFlux:Potential@n0", "PotentialEdgeFlux:Potential@n1", "contactcharge_edge", "contactcharge_edge:Potential@n0", "contactcharge_edge:Potential@n1", "edge_index", "mu_n", "mu_n:Potential@n0", "mu_n:Potential@n1", "mu_p", "mu_p:Potential@n0", "mu_p:Potential@n1", "unitx", "unity", "ElementEdgeCouple", "ElementNodeVolume"
ZONE T="bulk" NODES=1597, ELEMENTS=3037, DATAPACKING=BLOCK, ZONETYPE=FETRIANGLE, VARLOCATION=([68,69]=CELLCENTERED)
0 7.4e-05 7.4e-05 6.4e-05 1e-05 0 2.96e-06 5.92e-06 8.88e-06 1.184e-05 1.48e-05 1.776e-05 2.072e-05 2.368e-05 2.664e-05 2.96e-05 3.256e-05 3.552e-05 3.848e-05 4.144e-05 4.44e-05 4.736e-05 5.032e-05 5.328e-05 5.624e-05 5.92e-05 6.216e-05 6.512e-05 6.808e-05 7.104e-05 7.4e-05 7.4e-05 7.4e-05 7.4e-05 7.4e-05 7.4e-05 7.4e-05 7.4e-05 7.4e-05 7.4e-05 7.4e-05 7.4e-05 7.4e-05 7.4e-05 7.4e-05 7.4e-05 7.4e-05 7.4e-05 7.4e-05 7.4e-05 7.4e-05 7.4e-05 7.4e-05 7.4e-05 7.4e-05 7.4e-05 7.4e-05 7.3e-05 7.2e-05 7.1e-05 7e-05 6.9e-05 6.8e-05 6.7e-05 6.6e-05 6.5e-05 6.3e-05 6.2e-05 6.1e-05 6e-05 5.9e-05 5.8e-05 5.7e-05 5.6e-05 5.5e-05 5.4e-05 5.3e-05 5.2e-05 5.1e-05 5e-05 4.9e-05 4.8e-05 4.7e-05 4.6e-05 4.5e-05 4.4e-05 4.3e-05 4.2e-05 4.1e-05 4e-05 3.9e-05 3.8e-05 3.7e-05 3.6e-05 3.5e-05 3.4e-05 3.3e-05 3.2e-05 3.1e-05 3e-05 2.9e-05 2.8e-05 2.7e-05 2.6e-05 2.5e-05 2.4e-05 2.3e-05 2.2e-05 2.1e-05 2e-05 1.9e-05 1.8e-05 1.7e-05 1.6e-05 1.5e-05 1.4e-05 1.3e-05 1.2e-05 1.1e-05 9e-06 8e-06 7e-06 6e-06 5e-06 4e-06 3e-06 2e-06 1e-06 0 0 0 0 0 0 0 0 0 0 0 0 0 0 0 0 0 0 0 0 0 0 0 0 0 0 0 2.45277e-05 3.05e-05 3.64691e-05 4.25e-05 4.85188e-05 5.43665e-05 1.86545e-05 7.23444e-05 1.98822e-06 5.96224e-05 1.35932e-05 1.54552e-06 7.26225e-05 4.58229e-05 3.404e-05 6.35e-05 9.48382e-06 2.23855e-05 7.2846e-05 1.16302e-06 7.21829e-05 1.85948e-06 6.7494e-05 5.46372e-05 6.4954e-06 2.14161e-05 5.16587e-05 4.54344e-05 2.75264e-05 3.34633e-05 3.94562e-05 1.03388e-06 7.31883e-05 1.34121e-05 6.37117e-05 3.49884e-06 7.0555e-05 2.10388e-06 7.23454e-05 7.22708e-05 1.77883e-06 1.39609e-06 7.25376e-05 7.27732e-05 1.04158e-06 7.30511e-05 9.76104e-07 2.80893e-05 4.00003e-05 6.55e-05 6.1328e-05 1.15e-05 1.57073e-05 5.75138e-05 7.27419e-06 6.94154e-05 1.49574e-06 7.24807e-05 2.08132e-06 6.65953e-05 6.51729e-05 6.23811e-05 6.37898e-05 6.11141e-05 6.24541e-05 5.99271e-05 6.12207e-05 5.87621e-05 6.00093e-05 5.76148e-05 5.88264e-05 5.64732e-05 5.77031e-05 5.53827e-05 5.65882e-05 5.43814e-05 5.54738e-05 5.34053e-05 5.44334e-05 5.24541e-05 5.34751e-05 5.15319e-05 5.25602e-05 5.06479e-05 4.96148e-05 4.87346e-05 4.77092e-05 4.68294e-05 4.58064e-05 4.49189e-05 4.39043e-05 4.30177e-05 4.20051e-05 4.11107e-05 4.01072e-05 3.92353e-05 3.82155e-05 3.73458e-05 3.63246e-05 3.54431e-05 3.4432e-05 3.35614e-05 3.25472e-05 3.16669e-05 3.06951e-05 2.97819e-05 2.87829e-05 2.79177e-05 2.68555e-05 2.60566e-05 4.97349e-05 2.50873e-05 2.42008e-05 4.02673e-05 2.88868e-05 2.30312e-05 2.23178e-05 2.3303e-05 2.14982e-05 2.24554e-05 2.07329e-05 2.16337e-05 1.99768e-05 2.05259e-05 3.4563e-05 4.44806e-05 5.4451e-05 2.08341e-05 1.92053e-05 2.57141e-05 1.83434e-05 1.75925e-05 3.72043e-05 1.67328e-05 1.6007e-05 3.15689e-05 2.00149e-05 2.16343e-05 2.09169e-05 2.24204e-05 1.51324e-05 1.44251e-05 5.32812e-05 1.52806e-05 1.37461e-05 1.45708e-05 1.30899e-05 2.17216e-05 2.31822e-05 1.38656e-05 1.24396e-05 1.35361e-05 5.75542e-05 2.24993e-05 2.39313e-05 1.16396e-05 1.10069e-05 1.4258e-05 1.32378e-05 2.46124e-05 2.53514e-05 2.60334e-05 2.67725e-05 2.74552e-05 2.81952e-05 2.88786e-05 2.96196e-05 3.03019e-05 3.10454e-05 3.17305e-05 3.24824e-05 3.31573e-05 3.39129e-05 3.45906e-05 3.53354e-05 3.60211e-05 3.6766e-05 3.74534e-05 3.8199e-05 3.88871e-05 3.96333e-05 4.03219e-05 4.10685e-05 4.16993e-05 4.24948e-05 4.31619e-05 4.39343e-05 4.46291e-05 4.53771e-05 4.60669e-05 4.6827e-05 4.74777e-05 4.82469e-05 4.8944e-05 4.97017e-05 5.03852e-05 5.1135e-05 5.18248e-05 5.25736e-05 5.32107e-05 5.39909e-05 5.46742e-05 5.54308e-05 5.61423e-05 5.6884e-05 5.7582e-05 5.83221e-05 5.90186e-05 5.97417e-05 6.03757e-05 6.11716e-05 6.18943e-05 6.10594e-05 6.25796e-05 6.04651e-05 5.61413e-05 1.25949e-05 1.33548e-05 6.26392e-05 6.18497e-05 5.0475e-05 4.61665e-05 4.03862e-05 2.89418e-05 3.46784e-05 2.32696e-05 2.18769e-05 1.02089e-05 9.56791e-06 1.16424e-05 1.24289e-05 6.33987e-05 6.25973e-05 5.69938e-05 2.26136e-05 2.12911e-05 4.5325e-05 8.7978e-06 6.41699e-05 6.33995e-05 8.16851e-06 8.95227e-06 7.57892e-06 8.32084e-06 1.06914e-05 1.14736e-05 9.91428e-06 6.49718e-05 5.24662e-05 1.46464e-05 1.40653e-05 6.18594e-05 6.25573e-05 6.42449e-05 6.3343e-05 5.64437e-05 7.04136e-06 7.75502e-06 6.10956e-05 3.81227e-05 3.24199e-05 2.66955e-05 2.19827e-05 2.32686e-05 2.07006e-05 9.02719e-06 1.32705e-05 1.22908e-05 1.41702e-05 1.31342e-05 1.50754e-05 1.40761e-05 1.59161e-05 1.47499e-05 1.68357e-05 1.58526e-05 1.79804e-05 1.68047e-05 1.9064e-05 1.45213e-05 1.781e-05 2.01121e-05 1.23199e-05 2.1366e-05 2.24286e-05 2.36831e-05 2.47606e-05 2.6014e-05 2.70954e-05 2.83209e-05 2.94306e-05 3.06126e-05 3.17823e-05 3.29728e-05 3.41443e-05 3.53805e-05 3.64934e-05 3.77584e-05 3.88459e-05 4.00912e-05 4.12024e-05 4.24496e-05 4.35672e-05 8.45059e-06 7.21923e-06 9.70055e-06 8.95266e-06 6.50708e-05 6.40535e-05 4.32409e-05 3.75111e-05 5.33796e-05 3.17802e-05 8.18952e-06 5.35367e-05 4.40296e-05 7.41761e-06 2.00103e-05 1.94385e-05 1.88492e-05 2.26541e-05 2.38928e-05 6.59373e-05 2.01167e-05 1.88781e-05 1.04795e-05 1.6473e-05 6.18252e-05 4.11823e-05 4.96361e-05 4.8635e-05 4.1015e-05 3.52449e-05 2.96294e-05 7.897e-06 6.698e-06 6.01139e-06 5.50367e-06 2.58523e-05 3.06431e-05 6.39208e-05 6.22032e-06 7.21946e-06 1.90941e-05 3.76619e-05 4.4793e-05 4.5847e-05 6.68045e-05 1.81934e-05 1.76508e-05 4.23947e-05 1.75339e-05 1.5078e-05 9.54851e-06 5.53701e-05 5.45199e-05 2.33133e-05 2.45288e-05 2.51039e-05 2.57307e-05 2.63078e-05 2.69152e-05 1.6025e-05 2.40383e-05 1.95505e-05 5.623e-05 5.62797e-05 1.50482e-05 3.42107e-05 2.02525e-05 4.82404e-06 2.7509e-05 2.81144e-05 2.87115e-05 2.93309e-05 2.99153e-05 3.05627e-05 3.11247e-05 3.17515e-05 3.23259e-05 3.29544e-05 6.46924e-06 3.35343e-05 3.41616e-05 3.47421e-05 3.53544e-05 3.59497e-05 3.65384e-05 3.71539e-05 3.77535e-05 3.83645e-05 3.89723e-05 3.95773e-05 4.01858e-05 4.07901e-05 4.14286e-05 4.20083e-05 4.26526e-05 4.32248e-05 4.38475e-05 4.44362e-05 4.50665e-05 4.56511e-05 4.62823e-05 4.68667e-05 4.74825e-05 4.808e-05 4.86729e-05 4.68922e-05 4.92918e-05 4.98945e-05 5.05089e-05 5.11449e-05 5.17315e-05 5.23689e-05 5.29494e-05 5.35624e-05 5.29925e-05 5.41819e-05 5.47536e-05 5.53475e-05 5.59337e-05 5.65195e-05 5.71103e-05 5.76954e-05 5.8288e-05 5.88647e-05 5.94618e-05 6.00389e-05 6.06366e-05 6.12209e-05 6.18145e-05 6.23969e-05 6.29873e-05 6.35698e-05 6.41671e-05 6.35721e-05 6.47769e-05 6.53665e-05 6.59831e-05 6.65738e-05 6.72103e-05 6.66092e-05 6.78346e-05 6.7859e-05 6.72397e-05 6.8506e-05 6.78834e-05 6.91238e-05 5.88682e-05 6.41748e-05 2.72244e-05 4.3213e-06 4.98956e-06 4.07831e-05 6.65622e-05 6.71573e-05 6.85758e-05 6.79094e-05 3.90091e-05 2.31703e-05 7.36909e-06 8.53079e-06 5.05128e-05 6.76666e-05 1.99948e-05 3.47674e-05 1.70387e-05 4.4477e-05 6.03248e-05 1.69689e-05 1.64411e-05 1.75095e-05 1.71071e-05 1.59154e-05 1.52508e-05 1.47372e-05 1.40752e-05 1.35709e-05 6.60213e-05 5.54134e-05 5.37132e-05 1.02808e-05 4.37035e-05 4.59859e-05 3.8397e-05 6.85515e-05 6.76689e-05 2.87211e-05 7.42489e-06 3.2414e-05 5.75659e-06 6.11852e-05 1.28955e-05 1.24829e-05 2.6299e-05 1.8639e-05 5.53432e-05 5.71387e-05 5.48259e-06 6.24725e-06 3.84182e-06 2.56896e-05 5.59518e-05 6.97802e-05 6.68104e-06 8.00732e-06 9.14211e-06 2.39595e-05 2.27294e-05 1.65725e-05 2.11271e-05 5.45784e-05 1.18974e-05 5.15845e-06 6.92751e-05 6.86384e-05 4.87255e-05 6.64e-05 5.84736e-05 5.2907e-05 6.81336e-06 6.0587e-05 5.20334e-05 5.12448e-05 5.36086e-05 5.24587e-05 7.03819e-05 5.82545e-05 1.42348e-05 1.77638e-05 3.63426e-06 4.14631e-06 4.47651e-06 5.24425e-06 3.89661e-05 2.26418e-05 6.65105e-05 6.97262e-05 6.29866e-05 6.41264e-05 4.4927e-06 3.0491e-05 3.37814e-06 9.69491e-06 1.02758e-05 1.33821e-05 5.79584e-05 6.68304e-05 6.84931e-05 5.03674e-05 4.95998e-05 4.87102e-05 4.79444e-05 4.70535e-05 4.62896e-05 4.53981e-05 4.46349e-05 4.37441e-05 4.29804e-05 4.20915e-05 4.13086e-05 4.04378e-05 3.96394e-05 3.87856e-05 3.80085e-05 3.71427e-05 6.94545e-05 6.85033e-05 4.49021e-05 4.71601e-05 4.82243e-05 4.25556e-05 6.76495e-05 6.93166e-05 6.99259e-05 4.94159e-05 3.63956e-05 3.55031e-05 3.47596e-05 3.38657e-05 3.29649e-05 1.40181e-05 1.26144e-05 1.15288e-05 1.01561e-05 9.11837e-06 1.12254e-05 8.70318e-06 1.04617e-05 8.15439e-06 9.42617e-06 7.20127e-06 6.7451e-06 8.4199e-06 6.16446e-06 7.43971e-06 8.30375e-06 4.49611e-05 5.30433e-05 1.27984e-05 1.51516e-05 1.16508e-05 2.341e-05 2.45641e-05 4.07771e-06 5.96974e-06 4.51165e-06 3.64998e-05 5.22466e-05 5.3559e-05 1.62507e-05 1.68065e-05 3.31007e-05 3.22254e-05 3.14607e-05 3.05896e-05 4.14233e-05 1.72425e-05 2.98029e-05 2.8954e-05 2.81676e-05 2.73241e-05 2.65664e-05 2.80918e-05 7.02421e-05 6.67138e-05 6.75734e-05 6.57061e-05 6.66731e-05 6.46666e-05 6.56765e-05 6.36873e-05 6.26462e-05 6.47773e-05 6.67779e-05 6.57847e-05 6.17352e-05 6.8798e-05 1.8087e-05 1.73748e-05 2.0745e-05 2.0196e-05 6.78914e-05 6.68081e-05 6.29167e-05 6.35478e-05 1.74571e-05 3.13497e-05 3.79108e-05 2.96051e-06 3.4245e-06 5.26721e-06 9.80008e-06 7.21249e-06 2.2236e-05 7.03801e-06 6.03118e-06 7.10021e-05 1.0609e-05 5.36865e-06 2.60965e-05 2.14571e-06 7.85069e-06 3.82227e-06 4.58774e-06 5.88121e-05 5.7968e-05 7.01289e-05 4.72399e-05 6.86832e-05 7.09253e-05 7.0324e-05 7.15191e-05 7.08768e-05 6.97028e-05 7.02883e-05 6.91503e-05 7.13714e-05 4.6167e-05 1.82256e-05 3.13593e-06 3.94501e-06 6.06184e-05 6.16533e-05 5.96762e-05 6.05875e-05 6.22925e-05 1.97078e-05 1.72102e-05 1.23217e-05 2.75848e-06 2.29337e-06 2.28799e-05 7.47212e-06 4.54897e-06 6.07906e-06 6.89449e-05 6.79187e-05 7.01673e-05 6.4539e-05 6.48176e-05 6.41857e-05 1.60526e-05 5.13919e-05 1.87182e-05 1.79683e-05 2.78946e-06 6.90796e-05 2.23926e-05 2.38095e-05 4.8293e-06 7.01906e-05 7.1129e-05 4.61066e-05 6.97121e-05 6.86033e-05 6.80707e-05 5.04663e-06 5.37562e-05 5.5441e-05 3.83267e-06 2.80293e-06 4.40028e-05 2.96103e-06 1.66645e-05 1.83655e-05 5.87845e-05 5.77243e-05 5.42137e-05 4.14785e-06 1.09634e-05 5.03679e-05 4.92976e-05 5.14633e-05 5.03791e-05 5.27659e-05 5.15303e-05 4.91462e-05 5.02667e-05 4.77378e-05 5.27734e-05 5.14646e-05 5.40698e-05 2.57047e-05 2.64615e-05 2.51295e-05 9.63144e-06 1.07086e-05 5.19323e-05 5.95167e-05 6.75141e-05 6.69793e-05 6.65253e-05 6.35491e-05 6.2623e-05 6.46048e-05 1.14771e-05 1.08573e-05 5.11409e-05 3.39691e-05 5.95522e-05 2.56391e-06 5.04194e-05 6.66711e-05 4.28588e-05 2.14356e-05 2.11197e-05 1.99217e-05 5.95445e-05 6.90966e-05 1.65834e-05 5.63391e-06 5.07413e-06 6.20473e-06 1.54684e-05 1.50371e-05 3.05214e-05 5.29846e-05 5.00844e-05 6.93748e-05 7.06255e-05 6.78822e-05 5.13496e-05 5.08349e-05 1.11855e-05 2.20506e-05 1.33651e-05 5.37023e-06 6.26268e-05 1.13197e-05 1.1664e-05 1.90129e-05 1.03523e-05 5.52404e-05 2.52578e-06 5.38241e-05 7.09395e-05 7.17009e-05 2.71125e-05 1.83272e-05 6.08358e-05 5.78703e-05 5.62723e-05 2.13845e-05 1.2984e-05 4.13374e-05 4.0268e-05 3.80182e-05 3.92266e-05 3.70546e-05 4.15109e-05 4.37545e-05 3.58692e-05 3.50843e-05 6.16793e-06 5.46324e-05 3.72529e-05 3.88384e-05 4.88174e-05 6.17383e-05 3.89516e-05 4.18115e-05 4.25567e-05 4.41423e-05 5.19469e-05 5.11905e-05 4.98327e-05 4.90481e-05 4.75868e-05 4.68994e-05 4.56926e-05 4.63136e-05 4.74592e-05 4.69284e-05 4.80106e-05 4.85837e-05 4.90619e-05 4.9659e-05 4.95655e-05 4.58299e-05 4.51256e-05 4.39834e-05 4.47111e-05 4.36826e-05 4.2955e-05 4.33446e-05 4.21107e-05 4.12081e-05 4.01396e-05 4.0536e-05 3.95281e-05 4.16192e-05 5.47356e-05 5.5476e-05 5.68251e-05 5.75505e-05 5.81979e-05 5.73741e-05 5.89699e-05 5.9565e-05 3.60823e-05 3.55736e-05 3.40379e-05 3.32118e-05 2.49407e-05 2.38649e-05 2.15864e-05 2.28306e-05 2.49501e-05 2.06599e-05 2.18619e-05 1.99405e-05 2.1009e-05 1.89744e-05 2.41182e-05 3.35947e-05 3.42031e-05 3.53327e-05 3.48279e-05 3.59157e-05 3.64328e-05 3.30513e-05 3.19202e-05 3.25616e-05 3.14686e-05 3.0867e-05 3.69851e-05 3.75911e-05 3.8003e-05 3.12661e-05 3.0024e-05 2.91699e-05 2.80555e-05 2.85319e-05 2.95351e-05 5.71044e-05 5.65204e-05 5.53782e-05 5.59661e-05 5.76136e-05 5.86935e-05 5.93938e-05 5.98733e-05 6.0971e-05 3.03593e-05 2.97379e-05 4.47388e-05 2.75125e-05 2.68251e-05 2.52106e-05 6.51896e-05 6.17968e-05 1.87636e-05 1.53872e-05 1.48846e-05 1.36983e-05 6.00051e-05 6.19989e-05 5.87408e-05 8.545e-06 7.94375e-06 5.21002e-05 2.31279e-05 9.53368e-06 7.4863e-06 2.46758e-05 2.39512e-05 7.08004e-05 7.20543e-05 2.07298e-05 1.96674e-05 6.26923e-05 1.48312e-06 6.60299e-05 2.9208e-06 3.9869e-06 2.51623e-05 2.56833e-05 2.68901e-05 2.61173e-05 2.11368e-05 4.51417e-06 3.26341e-05 4.73442e-06 2.61129e-05 2.83444e-05 2.72464e-05 2.94363e-05 3.05108e-05 3.14585e-05 2.84443e-05 3.2554e-05 3.65018e-05 4.21328e-05 1.31571e-05 4.78664e-05 5.99115e-06 1.21592e-05 1.28129e-05 6.36539e-05 4.80646e-05 6.80518e-05 6.92055e-05 7.07188e-05 5.47803e-05 3.06728e-05 1.68137e-05 1.74781e-05 1.83662e-05 1.91632e-05 9.1054e-06 1.01148e-05 7.29247e-05 2.18622e-06 4.20821e-05 2.52086e-05 2.67298e-05 2.94644e-05 2.81577e-05 3.0794e-05 3.21785e-05 3.34504e-05 3.19968e-05 3.44146e-05 3.59551e-05 2.38434e-05 7.31053e-05 1.11872e-06 5.62822e-05 5.71225e-05 6.09405e-05 6.03541e-05 4.2911e-05 4.14504e-05 3.89171e-05 4.01739e-05 4.27724e-05 3.69458e-05 4.42595e-05 4.5825e-05 4.72187e-05 4.38356e-05 1.17712e-05 3.96414e-05 1.28678e-05 1.13656e-05 4.57015e-05 6.51256e-05 7.15398e-05 1.08486e-05 6.9119e-05 2.94284e-05 2.67956e-05 3.8272e-05 4.84414e-05 5.87026e-05 2.03916e-06 4.45775e-06 3.77963e-06 4.44347e-05 1.21751e-05 7.2314e-05 7.06163e-05 1.71133e-06 1.44606e-06 1.75211e-06 3.82772e-06 1.32258e-06 3.06289e-06 7.27961e-05 7.21655e-05 7.28071e-05 7.15761e-05 1.03166e-06 7.29137e-05 1.01807e-06 3.84544e-05 6.84788e-05 2.50654e-05 7.28147e-05 9.58067e-07 5.60605e-05 3.54557e-05 7.78317e-06 2.02888e-05 1.97757e-05 1.87371e-05 1.57546e-05 4.0419e-05 6.41843e-05 6.56834e-05 6.48883e-05 6.54998e-05 6.33967e-05 3.48867e-05 5.25159e-05 3.10754e-05 6.39278e-05 6.5203e-05 3.09922e-05 6.78988e-06 4.74848e-05 3.1848e-06 3.67363e-05 6.51337e-06 5.18205e-05 4.80479e-05 4.78913e-06 3.00301e-06 3.59142e-05 5.57016e-05 2.9445e-05 5.17282e-05 5.93551e-05 2.59356e-05 1.22571e-05 6.93306e-05 6.47302e-05 6.84074e-05 2.2347e-05 2.05918e-05 1.60136e-05 1.73335e-05 1.59454e-05 9.08615e-06 5.70855e-05 5.23572e-05 5.94912e-05 4.87194e-05 7.14817e-05 2.49265e-06 2.38689e-05 1.02929e-05 3.29976e-05 6.69962e-06 3.86164e-05 1.04986e-05 6.64997e-05 1.25155e-05 6.45e-05 6.04817e-05 6.24367e-05 1.47007e-05 5.85227e-05 2.74803e-05 5.33794e-05 3.46372e-05 2.34846e-05 2.39942e-05 4.64616e-05 3.74929e-05 3.84649e-05 4.0573e-05 7.13972e-05 9.72361e-06 4.30941e-05 3.34927e-06 4.91971e-05 6.91702e-05 3.70592e-05 3.36683e-05 7.03704e-05 3.16567e-05 7.19914e-05 4.5873e-05 7.26117e-05 1.5691e-05 2.11866e-05 1.08022e-05 2.74039e-05 6.00324e-06 5.4171e-05 3.47583e-06 7.01277e-05 5.41463e-05 3.2379e-05 7.06253e-05 5.40208e-05 6.53983e-05 6.23361e-05 1.45849e-05 1.36806e-05 3.57317e-05 1.08732e-05 7.16483e-05 7.99128e-06 6.58725e-05 1.58547e-05 3.34241e-05 2.97567e-05 2.80826e-05 3.5313e-05 5.65207e-05 4.30682e-06 4.1229e-06 1.90853e-05 4.12161e-05 3.62673e-05 3.9512e-05 4.94826e-05 3.29867e-05 5.11387e-05 4.4513e-05 4.7856e-05 3.92026e-05 6.72418e-05 4.28353e-05 4.75313e-05 4.65323e-05 4.62469e-05 4.01697e-05 3.96007e-05 3.77466e-05 2.92952e-05 3.17268e-05 1.8763e-05 3.67123e-05 2.81631e-05 9.62187e-06 4.55259e-05 5.27787e-05 5.05554e-05 4.70506e-05 4.00396e-05 3.90141e-05 2.44792e-05 2.82076e-05 1.81476e-05 3.95232e-05 2.54007e-05 2.52725e-05 6.77515e-05 1.60687e-05 6.76406e-05 1.13632e-05 1.54352e-05 6.72374e-05 1.52424e-05 1.41999e-05 4.87662e-05 6.56645e-05 2.03918e-06 1.61812e-05 7.05012e-05 5.16709e-05 5.27489e-05 4.11218e-05 2.82439e-05 1.74665e-05 3.68828e-05 2.4104e-06 3.24389e-05 8.9577e-06 2.89481e-05 3.44798e-05 5.31682e-06 5.47927e-05 4.34785e-05 4.13717e-05 5.54807e-06 2.3564e-05 7.09082e-05 2.68847e-05 3.38763e-05 6.16336e-05 3.22611e-05 6.49236e-05 4.80898e-05 8.54407e-06 5.76978e-05 3.52823e-05 6.10911e-05 1.85399e-06 3.54022e-05 3.09932e-05 1.59087e-06 4.15384e-05 1.93444e-05 7.31974e-05 8.66738e-07 2.86302e-05 2.75935e-05 2.55351e-05 4.37694e-05 4.25965e-05 5.1052e-05 5.88642e-05 7.17673e-05 6.00096e-05 5.06341e-05 3.41123e-05 4.8377e-05 7.21256e-05 2.24748e-05 6.6e-05 4.66459e-05 4.98822e-05 6.70767e-06 2.65237e-05 3.14815e-05 5.64663e-05 7.17795e-05 4.26364e-05 8.63723e-06 5.5242e-05 6.64494e-05 4.68617e-05 8.15126e-06 5.85685e-06 6.05124e-06 1.47641e-05 8.78299e-06 1.38222e-06 2.18094e-05 5.75195e-05 6.2586e-05 6.54131e-05 1.66515e-05 7.05179e-05 1.29085e-05 4.47372e-05 6.03436e-05 1.15677e-05 7.26884e-05 7.16416e-05 5.85885e-05 2.9533e-05 6.30453e-05 2.44828e-05 2.3576e-06 2.45098e-05 1.79176e-05 1.03196e-05 1.89822e-06 2.97506e-05 9.61479e-06 5.78476e-05 1.98649e-05 3.04961e-05 2.58672e-05 6.83167e-05 1.04906e-05 7.20085e-05 5.97394e-05 7.46993e-06 5.6282e-05 7.23291e-05 1.91934e-05 5.00115e-05 3.05249e-05 6.08525e-05 2.19286e-05 5.66964e-05 1.84363e-06 4.95924e-05 6.55661e-05 5.86653e-05 4.81466e-06 1.95148e-05 6.3e-05 1.67887e-05 6.91723e-05 2.71381e-06 6.19115e-05 3.76061e-06 3.82108e-05 7.04491e-05 2.38016e-05 2.03856e-05 7.17619e-05 2.62215e-05 3.32951e-05 3.67557e-05 1.24827e-05 5.52226e-05 1.34749e-05 6.38112e-05 6.60563e-05 1.65677e-05 2.02238e-06 7.00753e-05 3.61942e-05 6.28104e-05 3.24467e-05 1.89581e-05 5.70376e-05 3.22352e-06 1.54815e-05 2.75102e-05 2.09695e-05 4.2084e-05 5.56773e-05 3.42342e-05 6.4e-05 7.30243e-05 6.7e-05 1.9536e-05 1.20385e-05 5.47846e-05 3.15674e-06 1.75614e-05 9.01734e-06 4.40822e-05 5.77916e-05 5.05118e-05 7.3268e-05 7.31983e-07 4.03912e-05 7.20186e-05 5.8376e-06 6.92347e-05 6.88041e-06 5.06866e-05 3.89498e-05 6.10771e-05 1.10178e-05 6.7993e-05 1.3253e-05 1.21763e-05 3.79761e-05 2.28739e-05 6.50203e-05 2.1284e-05 7.1567e-05 1.95e-05 4.73826e-05 7.01107e-05 6.60095e-05 3.43004e-05 1.00596e-05 3.00266e-05 4.49878e-05 5.35873e-05 6.97818e-05 5.80454e-05 1.74085e-05 3.43089e-06 7.15603e-05 3.93889e-06 6.28714e-05 7.07549e-05 2.45211e-05 1.02022e-05 8.48581e-06 6.11988e-05 5.82852e-05 5.15468e-05 1.4374e-05 4.21624e-05 5.72464e-05 2.44928e-06 4.58571e-05 6.86978e-05 4.26975e-05 5.62864e-05 1.41005e-05 5.89752e-05 1.68627e-06 5.36341e-05 3.98761e-05 3.68905e-05 6.99892e-05 3.88516e-06 2.41649e-05 1.41396e-05 1.84339e-06 3.92903e-05 1.84512e-05 2.69398e-05 6.03046e-05 6.04561e-05 2.52597e-05 1.27357e-05 1.15942e-05 4.01639e-06 5.25077e-05 1.1806e-05 5.20313e-05 1.74351e-05 5.1483e-05 5.33085e-05