TITLE = "mos2d"
VARIABLES = "x", "y", "Acceptors", "AtContactNode", "BodyDoping", "ContactNSurfaceNormal_x", "ContactNSurfaceNormal_y", "ContactSurfaceArea", "Donors", "DrainDoping", "DrainDoping1", "DrainDoping2", "Interface_charge", "IntrinsicCharge", "IntrinsicCharge:Potential", "IntrinsicElectrons", "IntrinsicElectrons:Potential", "IntrinsicHoles", "IntrinsicHoles:Potential", "NSurfaceNormal_x", "NSurfaceNormal_y", "NetDoping", "NodeVolume", "Potential", "PotentialIntrinsicCharge", "PotentialIntrinsicCharge:Potential", "Potential_prev", "SourceDoping", "SourceDoping1", "SourceDoping2", "SurfaceArea", "bodynodemodel", "bodynodemodel:Potential", "coordinate_index", "drainnodemodel", "drainnodemodel:Potential", "gatenodemodel", "gatenodemodel:Potential", "node_index", "sourcenodemodel", "sourcenodemodel:Potential", "well_Doping", "EParallel", "EdgeCouple", "EdgeInverseLength", "EdgeLength", "EdgeNodeVolume", "ElectricField", "ElectricField:Potential@n0", "ElectricField:Potential@n1", "Potential@n0", "Potential@n1", "PotentialEdgeFlux", "PotentialEdgeFlux:Potential@n0", "PotentialEdgeFlux:Potential@n1", "contactcharge_edge", "contactcharge_edge:Potential@n0", "contactcharge_edge:Potential@n1", "edge_index", "mu_n", "mu_n:Potential@n0", "mu_n:Potential@n1", "mu_p", "mu_p:Potential@n0", "mu_p:Potential@n1", "unitx", "unity", "ElementEdgeCouple", "ElementNodeVolume"
ZONE T="bulk" NODES=1574, ELEMENTS=2973, DATAPACKING=BLOCK, ZONETYPE=FETRIANGLE, VARLOCATION=([68,69]=CELLCENTERED)
0 1.4e-05 1.4e-05 1e-05 4e-06 0 2.8e-06 5.6e-06 8.4e-06 1.12e-05 1.4e-05 1.4e-05 1.4e-05 1.4e-05 1.4e-05 1.4e-05 1.4e-05 1.4e-05 1.4e-05 1.4e-05 1.4e-05 1.4e-05 1.4e-05 1.4e-05 1.4e-05 1.4e-05 1.4e-05 1.4e-05 1.4e-05 1.4e-05 1.4e-05 1.4e-05 1.4e-05 1.4e-05 1.4e-05 1.4e-05 1.4e-05 1.4e-05 1.4e-05 1.4e-05 1.4e-05 1.4e-05 1.4e-05 1.4e-05 1.4e-05 1.4e-05 1.4e-05 1.4e-05 1.4e-05 1.4e-05 1.4e-05 1.4e-05 1.4e-05 1.4e-05 1.4e-05 1.4e-05 1.4e-05 1.4e-05 1.38e-05 1.36e-05 1.34e-05 1.32e-05 1.3e-05 1.28e-05 1.26e-05 1.24e-05 1.22e-05 1.2e-05 1.18e-05 1.16e-05 1.14e-05 1.12e-05 1.1e-05 1.08e-05 1.06e-05 1.04e-05 1.02e-05 9.8e-06 9.6e-06 9.4e-06 9.2e-06 9e-06 8.8e-06 8.6e-06 8.4e-06 8.2e-06 8e-06 7.8e-06 7.6e-06 7.4e-06 7.2e-06 7e-06 6.8e-06 6.6e-06 6.4e-06 6.2e-06 6e-06 5.8e-06 5.6e-06 5.4e-06 5.2e-06 5e-06 4.8e-06 4.6e-06 4.4e-06 4.2e-06 3.8e-06 3.6e-06 3.4e-06 3.2e-06 3e-06 2.8e-06 2.6e-06 2.4e-06 2.2e-06 2e-06 1.8e-06 1.6e-06 1.4e-06 1.2e-06 1e-06 8e-07 6e-07 4e-07 2e-07 0 0 0 0 0 0 0 0 0 0 0 0 0 0 0 0 0 0 0 0 0 0 0 0 0 0 0 0 0 0 0 0 0 0 0 0 0 0 0 0 0 0 0 0 0 0 0 0 7.09517e-06 5.88193e-06 4.70259e-06 8.27311e-06 9.50412e-06 5.55547e-07 1.35183e-05 1.04985e-05 3.7e-06 3.78108e-07 1.3567e-05 2.7e-06 1.15e-05 6.02767e-07 1.33903e-05 1.36964e-05 2.75804e-07 7.12352e-07 1.31808e-05 1.88181e-06 1.23045e-05 9.01258e-07 2.56954e-07 1.37701e-05 1.31139e-05 1.29766e-05 1.34142e-06 8.89101e-06 5.32035e-06 7.67481e-06 6.51033e-06 1.18154e-06 1.29e-05 1.26009e-05 1.38556e-06 2.20439e-07 1.253e-05 1.37953e-05 1.67051e-06 1.2054e-05 7.05214e-07 1.54641e-06 1.25824e-05 1.19134e-05 1.33521e-05 7.05785e-07 1.31601e-06 1.22577e-05 8.43483e-07 1.34459e-05 5.28466e-07 4.61472e-07 1.36114e-05 3.2739e-07 1.36629e-05 2.01026e-06 1.33e-05 1.19099e-05 1.11061e-05 3.09559e-06 2.3e-06 1.00889e-05 4.10018e-06 2.1734e-06 2.38513e-07 1.38278e-05 7.29013e-06 3.0068e-07 1.37107e-05 1.31412e-05 1.22531e-05 1.22001e-05 1.13411e-05 1.14303e-05 1.05126e-05 1.0598e-05 9.70553e-06 9.77532e-06 9.61122e-06 8.92385e-06 9.00381e-06 8.16833e-06 8.24037e-06 7.41784e-06 7.52854e-06 7.34513e-06 8.28055e-06 7.6138e-06 8.30039e-06 7.64688e-06 8.32252e-06 7.69495e-06 8.34676e-06 7.75229e-06 8.36673e-06 7.81162e-06 8.38955e-06 7.86712e-06 8.42017e-06 7.91865e-06 8.44658e-06 7.96961e-06 8.46444e-06 8.01457e-06 8.48724e-06 7.53421e-06 7.57861e-06 7.11571e-06 7.14851e-06 6.70812e-06 6.75495e-06 7.17352e-06 6.79436e-06 6.38181e-06 7.19824e-06 6.41684e-06 6.02116e-06 6.05892e-06 5.67276e-06 5.71608e-06 5.33413e-06 5.28731e-06 6.08371e-06 4.95546e-06 4.88529e-06 4.99784e-06 4.63128e-06 4.66421e-06 7.2055e-06 4.30539e-06 4.34654e-06 3.98356e-06 3.94495e-06 4.03415e-06 4.38402e-06 3.68263e-06 3.73882e-06 8.92644e-06 8.98863e-06 3.4025e-06 3.44827e-06 9.37351e-06 9.4181e-06 3.12788e-06 3.09616e-06 3.17174e-06 3.48651e-06 6.91258e-06 9.80483e-06 9.81703e-06 8.93048e-06 2.85867e-06 2.90645e-06 2.59413e-06 2.6207e-06 9.44649e-06 9.8304e-06 9.47164e-06 9.84467e-06 9.49078e-06 9.85084e-06 9.51368e-06 9.85564e-06 9.53994e-06 9.86961e-06 1.018e-05 1.01905e-05 1.04932e-05 9.56581e-06 1.0505e-05 1.08006e-05 1.08127e-05 9.25245e-06 9.27295e-06 8.97355e-06 8.98499e-06 8.69069e-06 1.02095e-05 9.28141e-06 1.10967e-05 1.11046e-05 8.70774e-06 8.42169e-06 1.08564e-05 1.10891e-05 8.44298e-06 8.15889e-06 1.13843e-05 1.13942e-05 2.34487e-06 2.2829e-06 2.37286e-06 2.64611e-06 6.59568e-06 6.51834e-06 8.17721e-06 7.89782e-06 7.87659e-06 7.62142e-06 1.16676e-05 1.16807e-05 7.6442e-06 7.37389e-06 8.92413e-06 8.46698e-06 2.10061e-06 1.19436e-05 1.19464e-05 1.1939e-05 2.12076e-06 1.16974e-05 6.6241e-06 7.59062e-06 7.39937e-06 7.13465e-06 8.71243e-06 1.19522e-05 5.75329e-06 5.66977e-06 1.8538e-06 1.8836e-06 1.22e-05 7.16018e-06 6.90037e-06 6.87011e-06 6.632e-06 6.60142e-06 6.36425e-06 6.3955e-06 6.1253e-06 6.09346e-06 5.85314e-06 5.81927e-06 5.58822e-06 5.61928e-06 5.36046e-06 1.2203e-05 1.17096e-05 5.38846e-06 5.13381e-06 7.41562e-06 5.63423e-06 9.78842e-06 1.02266e-05 1.02175e-05 1.06713e-05 1.06591e-05 1.62399e-06 1.58856e-06 1.65793e-06 1.9124e-06 1.24452e-05 1.24491e-05 5.16493e-06 4.91125e-06 4.87439e-06 4.65262e-06 9.10729e-06 9.02703e-06 1.11217e-05 1.11303e-05 1.11067e-05 6.46406e-06 5.57315e-06 6.41556e-06 5.44466e-06 6.3464e-06 1.12603e-05 5.32837e-06 6.30851e-06 5.57118e-06 1.4023e-06 1.43539e-06 1.22235e-05 1.22151e-05 4.61369e-06 4.3964e-06 4.43594e-06 4.18307e-06 4.90167e-06 4.98686e-06 7.18823e-06 1.22409e-05 6.08548e-06 1.26747e-05 1.26903e-05 5.98184e-06 1.15757e-05 1.15794e-05 1.26839e-05 5.24526e-06 6.22143e-06 7.31492e-06 7.2466e-06 6.10902e-06 7.1834e-06 5.97385e-06 7.11823e-06 8.26348e-06 7.42884e-06 1.18624e-06 1.22227e-06 4.22305e-06 3.97192e-06 4.95349e-06 1.45963e-06 4.15298e-06 4.2193e-06 4.01297e-06 1.14913e-06 1.25087e-05 1.24995e-05 1.22005e-05 1.2498e-05 1.21804e-05 1.25e-05 1.21571e-05 5.84379e-06 7.05185e-06 5.0393e-06 5.1929e-06 1.29327e-05 1.29192e-05 1.06758e-05 1.14597e-05 1.1474e-05 1.1231e-05 1.12437e-05 1.10073e-05 1.14623e-05 1.10169e-05 1.0798e-05 1.01949e-05 1.06269e-05 1.11005e-05 1.0592e-05 1.11002e-05 1.27015e-05 7.57513e-06 7.58505e-06 7.23125e-06 7.62602e-06 7.26869e-06 8.20242e-06 8.46144e-06 8.23433e-06 8.47152e-06 8.71301e-06 8.70961e-06 8.93093e-06 8.24802e-06 4.35051e-06 3.92091e-06 3.72454e-06 3.76165e-06 3.52756e-06 3.47618e-06 3.28108e-06 8.9345e-06 9.15269e-06 1.24996e-05 1.21523e-05 1.18019e-05 1.25015e-05 1.20193e-05 1.20193e-05 3.33046e-06 3.08919e-06 9.14836e-06 9.37708e-06 4.57721e-06 5.70915e-06 6.9828e-06 9.36969e-06 9.60162e-06 9.60089e-06 9.82961e-06 9.82825e-06 9.80696e-06 1.05555e-05 1.10926e-05 7.21754e-06 6.97854e-06 5.56788e-06 6.89345e-06 1.04773e-05 4.28637e-06 7.37755e-06 1.08059e-05 8.7235e-06 9.29835e-07 1.07552e-05 4.9963e-06 1.1649e-05 4.29808e-06 8.31089e-06 7.44535e-06 1.05904e-05 3.41944e-06 3.50644e-06 4.27269e-06 3.596e-06 4.33641e-06 3.68732e-06 4.38642e-06 3.77221e-06 4.42688e-06 3.84993e-06 4.46529e-06 3.92357e-06 4.49015e-06 3.99144e-06 3.42392e-06 3.5006e-06 4.03745e-06 3.56182e-06 3.03683e-06 3.10076e-06 4.08402e-06 4.54862e-06 2.58654e-06 2.66215e-06 3.17747e-06 2.693e-06 2.51448e-06 2.20639e-06 2.31274e-06 2.70502e-06 2.3539e-06 3.241e-06 4.59566e-06 4.97931e-06 1.92791e-06 1.99868e-06 2.40552e-06 2.06548e-06 5.03769e-06 1.65821e-06 1.73995e-06 6.83926e-06 1.25068e-06 1.02275e-06 1.47735e-06 2.9029e-06 7.85802e-06 4.94373e-06 2.11565e-06 1.7981e-06 7.95449e-06 1.24408e-05 1.17853e-05 1.14407e-05 7.00592e-06 6.78248e-06 1.11572e-05 1.29191e-05 1.43504e-06 1.49649e-06 2.06784e-06 1.98618e-06 1.05319e-05 1.1075e-05 5.07669e-06 1.05219e-06 8.3e-07 1.27123e-05 1.24394e-05 1.27902e-05 1.04963e-05 1.10871e-05 1.31307e-05 5.47382e-06 6.86859e-06 1.16812e-05 7.32488e-06 3.13609e-06 2.90008e-06 2.85042e-06 2.66119e-06 3.37222e-06 2.60959e-06 1.0053e-05 1.00596e-05 5.00205e-06 8.33512e-06 5.22544e-06 8.77405e-07 4.65019e-06 5.38551e-06 6.74134e-06 1.10241e-05 9.80451e-06 2.42528e-06 2.47704e-06 2.24474e-06 6.81075e-06 6.58889e-06 9.81866e-06 7.5602e-06 7.83937e-06 1.05984e-05 3.22524e-06 3.41982e-06 1.04386e-05 1.10575e-05 5.03391e-06 4.81167e-06 8.93958e-06 1.1708e-05 1.16968e-05 1.7315e-06 7.65576e-06 7.67317e-06 7.47147e-06 1.31344e-05 9.9952e-06 1.27967e-05 1.03846e-05 5.74677e-06 6.10169e-06 5.78463e-06 1.24984e-05 2.71599e-06 2.61966e-06 5.42113e-06 5.45136e-06 5.63836e-06 4.62972e-06 5.51866e-06 5.48616e-06 2.16398e-06 6.16454e-06 8.34921e-06 8.38546e-06 6.59093e-06 8.33258e-06 6.43409e-06 8.17333e-06 6.25193e-06 8.04442e-06 6.07149e-06 1.69842e-06 1.24691e-05 2.93683e-06 1.1876e-05 1.15456e-06 1.21588e-06 1.5444e-06 1.28348e-06 1.09277e-06 6.13037e-06 6.43358e-06 1.28007e-05 5.09873e-06 4.52118e-06 4.82499e-06 4.7674e-06 1.30748e-05 1.30805e-05 7.98811e-06 1.03921e-05 6.53833e-06 6.35899e-06 1.33386e-05 1.33576e-05 6.39368e-06 6.17987e-06 6.2453e-06 6.41245e-06 6.69685e-06 7.75085e-07 1.14581e-05 1.11008e-05 1.10773e-05 6.96521e-06 4.06867e-06 1.03917e-05 7.9982e-06 1.12104e-05 1.33521e-05 2.47496e-06 7.97348e-06 8.34801e-06 8.73914e-06 8.52929e-06 4.63416e-06 8.30751e-06 5.65778e-06 1.3079e-05 1.28776e-05 1.28561e-05 6.20862e-06 3.1696e-06 4.17717e-06 3.22202e-06 3.32357e-06 2.30152e-06 1.00995e-05 6.71007e-07 2.3425e-06 4.48567e-06 4.27679e-06 2.44007e-06 1.89685e-06 7.29934e-06 1.11142e-06 8.31121e-07 1.01875e-05 4.02141e-06 1.25103e-05 1.23007e-05 2.37944e-06 1.80439e-06 9.04522e-07 1.00627e-05 1.03102e-05 9.8113e-06 5.98003e-06 5.93254e-06 1.53545e-06 1.61838e-06 5.44925e-06 5.90262e-06 1.57526e-06 6.15464e-06 8.63885e-07 6.48676e-07 1.33426e-05 2.52766e-06 5.92485e-06 7.8555e-06 1.21334e-05 1.11662e-05 1.0259e-05 1.01752e-05 9.27782e-06 1.28186e-05 7.03177e-06 6.82397e-06 2.79911e-06 1.24609e-05 1.28421e-05 5.82024e-06 5.48946e-06 1.5033e-06 1.11264e-05 1.00714e-05 1.10503e-05 3.0676e-06 1.15949e-05 6.40551e-06 4.1191e-06 2.5118e-06 5.83232e-06 1.08321e-06 5.07054e-06 1.20403e-05 1.25022e-05 9.57357e-06 2.27677e-06 7.86973e-06 7.8877e-06 2.07963e-06 8.54672e-06 8.34184e-06 4.52984e-06 1.3157e-05 2.13806e-06 4.99466e-06 1.06022e-05 7.2862e-06 5.45481e-06 5.92188e-06 1.03638e-05 9.8009e-06 9.95654e-06 3.79847e-06 2.01091e-06 1.07639e-06 7.97549e-07 1.33348e-05 1.30936e-05 1.33297e-05 6.5651e-06 6.80636e-06 2.3212e-06 1.72682e-06 2.25103e-06 1.62704e-06 1.07577e-05 4.67678e-06 4.24411e-06 4.27601e-06 3.84226e-06 3.90508e-06 3.48419e-06 3.53399e-06 4.3653e-06 1.79764e-06 5.262e-06 1.27119e-05 5.08471e-06 8.14851e-06 8.12286e-06 3.73621e-06 5.61181e-07 2.39341e-06 4.82742e-06 4.61425e-06 5.03275e-06 3.3452e-06 6.01837e-06 1.02977e-05 7.81451e-06 8.12035e-06 8.44275e-06 3.13237e-06 3.16993e-06 8.71766e-06 5.44717e-06 8.47477e-06 8.77108e-06 1.74326e-06 6.38107e-06 6.5293e-06 1.0182e-05 9.98817e-06 1.35407e-05 1.35258e-05 1.11464e-05 1.00038e-05 1.10164e-05 9.84486e-06 1.11201e-05 1.20266e-05 1.06325e-05 5.19492e-07 7.58305e-07 1.35743e-05 9.68145e-06 1.1716e-06 1.92938e-06 2.03885e-06 1.80433e-06 2.51429e-06 8.07823e-06 1.88991e-06 1.10141e-05 1.0737e-05 1.23452e-05 1.23443e-05 1.16431e-05 1.22755e-05 8.95376e-06 9.14616e-06 9.14074e-06 9.33104e-06 1.32479e-05 1.01513e-05 1.06892e-05 1.2508e-05 5.83201e-06 6.4163e-06 5.77429e-06 2.24732e-06 8.7184e-06 1.51864e-06 5.68941e-06 8.04457e-06 2.24094e-06 3.56e-06 2.58027e-06 1.05682e-05 1.30927e-05 1.33528e-05 6.70378e-06 1.15473e-05 6.42052e-06 1.2397e-05 1.15474e-05 1.23635e-05 7.8626e-06 8.88805e-07 6.89754e-07 4.94289e-07 4.31815e-07 1.49695e-06 1.00036e-06 5.23647e-06 1.28032e-05 1.24979e-05 2.13599e-06 2.40374e-06 2.70682e-06 2.75748e-06 2.97714e-06 3.1702e-06 3.388e-06 3.58521e-06 3.55998e-06 3.78093e-06 3.7929e-06 3.95008e-06 4.00266e-06 5.38088e-06 1.11727e-05 4.58027e-06 4.38454e-06 4.40769e-06 4.22745e-06 4.69568e-06 5.88373e-06 5.89387e-06 1.35628e-05 1.35909e-05 3.98175e-06 1.12259e-06 1.21411e-06 1.01617e-06 1.6983e-06 1.26446e-06 7.83004e-07 4.22206e-07 1.08122e-05 1.08097e-05 1.1019e-05 1.1227e-05 1.12117e-05 1.14059e-05 1.22795e-05 1.20861e-05 1.21015e-05 1.18929e-05 1.18801e-05 1.16785e-05 1.17345e-05 4.70876e-06 1.14642e-05 9.89517e-06 1.08545e-05 7.99348e-06 4.08602e-06 3.7706e-06 9.00092e-06 8.73556e-06 9.02156e-06 1.05388e-05 1.07903e-05 9.87478e-06 3.62483e-06 3.39323e-06 9.56387e-06 1.19691e-05 1.16973e-05 1.75778e-06 1.32716e-06 1.54958e-06 1.18236e-06 7.6974e-06 7.9052e-06 7.52926e-06 7.28062e-06 7.22919e-06 1.3171e-05 6.16504e-06 6.62554e-06 5.54703e-06 7.64743e-06 8.10513e-06 6.67034e-06 1.20029e-05 3.10251e-06 1.23048e-05 1.0467e-05 5.6381e-06 5.84479e-06 7.63244e-06 6.40016e-06 5.4101e-06 1.05401e-05 5.63438e-06 5.51551e-06 1.29331e-05 6.80509e-06 1.08323e-06 1.354e-05 7.30724e-06 7.10877e-07 4.58942e-07 4.84805e-07 1.28176e-06 7.90546e-06 7.02065e-06 9.35553e-06 9.54566e-06 1.20406e-05 8.72207e-06 1.30084e-05 8.08506e-06 1.01903e-05 9.93867e-06 8.9393e-06 9.53589e-06 9.45121e-06 6.9421e-06 8.922e-06 9.45534e-06 5.77177e-06 2.80519e-06 5.03912e-06 5.69914e-06 5.74764e-06 6.38923e-06 1.23226e-05 8.50207e-06 9.02995e-06 9.73276e-06 6.64002e-06 2.13993e-06 1.1118e-06 2.5493e-06 1.2209e-05 1.1547e-05 9.98737e-06 2.96976e-06 3.35064e-06 1.87885e-06 1.20829e-05 1.00661e-05 1.25939e-05 1.10034e-05 1.1268e-05 1.24454e-05 2.25908e-06 8.68772e-07 1.43901e-06 2.81986e-06 3.02581e-06 6.96742e-07 1.31487e-05 1.36402e-06 2.75123e-06 2.54087e-06 2.50726e-06 1.32555e-06 2.55443e-06 8.59136e-07 1.33929e-05 6.3363e-06 7.08723e-06 1.34157e-05 1.28659e-05 1.29589e-05 1.23455e-05 1.28394e-05 2.05246e-06 6.4175e-06 6.22153e-06 1.35889e-05 7.46989e-06 7.33096e-06 6.81091e-06 9.16005e-06 4.1072e-07 7.78658e-07 7.35975e-07 8.23701e-07 1.2698e-05 1.34907e-05 1.36323e-05 1.33092e-05 1.33385e-05 2.97993e-07 3.53491e-07 9.15117e-06 1.36821e-05 8.99678e-06 2.3401e-07 2.33631e-07 1.00686e-05 1.68869e-06 2.153e-07 1.37657e-05 8.92603e-06 1.19173e-05 1.21063e-05 3.86653e-06 4.50841e-06 1.02399e-05 2.44092e-06 2.82935e-06 3.41929e-06 5.11062e-06 9.57389e-06 6.01483e-07 9.76389e-06 9.71187e-06 9.94764e-06 4.20983e-06 2.56377e-07 5.4822e-07 1.10533e-06 1.07874e-05 7.34403e-06 4.45552e-06 7.19649e-07 9.26392e-06 1.33824e-05 1.32671e-05 8.74189e-06 1.03843e-05 2.3646e-06 1.9185e-06 1.02524e-05 4.01926e-06 1.14896e-05 5.52255e-06 8.70099e-06 3.57133e-06 3.23247e-06 3.62819e-06 1.304e-05 1.36881e-05 1.3607e-06 9.72241e-06 9.37567e-06 4.85224e-06 1.03939e-05 3.93161e-06 9.81406e-07 1.35678e-05 8.74373e-06 1.30939e-05 1.26886e-05 4.93768e-07 1.35102e-05 1.36534e-06 8.84931e-06 1.16952e-05 1.13e-05 2.4941e-06 2.9e-06 1.09e-05 3.29927e-06 2.09287e-06 1.02969e-05 1.07014e-05 3.90324e-06 3.49988e-06 3.59514e-06 4.30131e-06 9.71204e-06 9.31379e-06 4.507e-06 4.90589e-06 8.52057e-06 7.90068e-06 6.70572e-06 6.89734e-06 7.29111e-06 8.21519e-06 6.33101e-06 1.31469e-05 2.17152e-06 4.40788e-06 4.75877e-06 6.04209e-06 1.13745e-05 4.171e-06 4.13102e-06 5.31644e-07 1.14359e-05 5.1044e-06 1.24766e-05 8.29968e-06 8.32437e-06 1.56705e-06 1.18368e-05 1.03747e-05 1.12358e-05 7.02061e-06 1.30812e-05 8.09637e-06 1.69197e-06 1.10042e-05 1.01674e-05 9.14969e-06 7.57379e-06 1.33788e-05 1.24732e-05 4.29857e-06 8.91174e-06 1.15701e-05 4.77971e-06 9.30428e-06 5.00005e-06 4.26052e-06 1.16593e-05 7.6302e-06 1.0799e-05 6.39208e-06 1.16765e-05 4.7326e-06 1.45804e-06 5.40663e-06 9.37503e-06 4.82781e-06 1.12642e-05 1.00519e-05 1.28255e-05 8.33777e-06 4.82593e-06 1.3012e-05 7.30018e-06 1.16936e-05 1.22811e-05 1.27875e-05 1.67395e-06 8.24789e-06 9.681e-06 1.19499e-05 8.52315e-06 2.14673e-06 3.68122e-06 6.33362e-06 1.14153e-05 1.30561e-06 5.14087e-06 7.5477e-06 1.20208e-05 5.09882e-06 1.00381e-05 1.09963e-05 4.94295e-07 3.03685e-06 1.36734e-06 8.14488e-06 7.1061e-06 6.99544e-06 5.62343e-06 2.96749e-06 3.32984e-06 2.7904e-06 1.39555e-06 5.11452e-06 5.00259e-06 1.00187e-05 2.01748e-06 1.02083e-05 4.84657e-06 9.59842e-06 7.27184e-06 1.19295e-05 6.72205e-06 2.97606e-06 1.02814e-05 3.18846e-06 3.35255e-06 2.77554e-06 7.50082e-06 2.5551e-06 1.75492e-07 1.38442e-05 3.66794e-06 5.83471e-06 8.30076e-06 1.16027e-05 1.20665e-05 1.36312e-05 6.02314e-06 6.94054e-06 2.82237e-06 1e-05 3.9275e-06 9.90361e-06 1.3105e-06 6.23168e-07 1.30759e-05 1.20657e-05 2.1897e-06 8.41699e-06 6.07715e-07 7.12748e-06 1.84903e-06 2.91456e-06 2.60731e-06 1.21496e-05 9.50875e-06 8.28439e-06 1.336e-06 7.07468e-06 1.33626e-05 2.88966e-06 8.34988e-06 1.02098e-05 2.73264e-06 9.90971e-06 6.96221e-06 4.29751e-06 9.66929e-06 1.14202e-06 9.09557e-06 5.83268e-06 9.40381e-06 3.94487e-06 9.11035e-06 1.88779e-06 6.43176e-06 1.29636e-05 5.85807e-06 2.39468e-07 3.2155e-06 1.38021e-05 2.68621e-06 1.03788e-06 9.31961e-07 4.97637e-06 1.22655e-05 5.7026e-06 8.71106e-06 1.15864e-05 1.16208e-05 8.94842e-06 4.01036e-07 6.31906e-06 1.35281e-06 9.43736e-06 9.52018e-06 9.56101e-06 8.09389e-06 4.24122e-06 1.70985e-06 6.6e-06 1.32378e-05 1.56182e-06 9.56151e-07 1.21118e-05 1.24452e-05 8.9987e-07 5.69878e-06 1.2839e-05 4.98026e-06 4.63691e-06 9.17561e-06 3.33336e-07 1.168e-05 8.41744e-06 3.76576e-07 3.62657e-06 5.94161e-06 9.36854e-06 1.20208e-05 6.06911e-06 1.02009e-05 6.14007e-06 4.16888e-06 5.7172e-06 1.25002e-05 9.7054e-07 5.34285e-06 1.99575e-06 3.60627e-06 1.38023e-05 1.31531e-05 8.38116e-06 6.00294e-06 3.30003e-06 2.7203e-06 9.82409e-06 4.62697e-06 1.14004e-05 9.29372e-06 1.22572e-06 1.04643e-05 8.0397e-06 9.07971e-06 3.80211e-06 1.32081e-05 4.51877e-07 1.1e-05 2.0153e-06 1.90846e-06 6.28653e-06 1.30016e-05 1.30702e-05 1.28537e-05 3.88761e-06 5.33867e-06 3.10726e-06 3.75053e-06 1.21469e-05 7.56531e-06 3.23988e-06 3.06992e-06 1.28232e-05 2.7948e-06 2.03744e-06 5.27378e-06 3.53781e-06 2.85522e-06 1.21015e-05 1.14801e-05 1.29855e-05 7.02943e-06 6.34517e-06 5.22816e-06 1.02468e-05 8.95844e-07 1.04151e-06 1.66801e-06 1.3584e-05 4.64958e-06 8.81608e-06 8.09412e-06 1.00057e-05 3.18956e-06 1.06003e-05 1.31601e-06 1.33806e-05 6.99758e-06 1.35143e-05 9.2135e-06 1.12601e-05 2.8e-06 6.30915e-06 1.42013e-07 1.38541e-05 1.36724e-05 1.50177e-06 1.59024e-06 2.09946e-06 2.70117e-06 8.06773e-06 7.83415e-06 4.99663e-07 2.2e-06 4.16769e-06 9.55569e-06 1.06011e-05 7.74797e-06 6.56812e-06 1.17727e-05 1.18671e-05 5.02319e-06 5.44941e-06 1.31658e-05 1.17666e-05 3.4e-06 8.23726e-06 1.28082e-05 1.31587e-05 2.06079e-06 9.83385e-06 2.10727e-06 1.28994e-05 1.03627e-05 8.98146e-06 1.01819e-05 2.5761e-06 1.28013e-05 1.27691e-05 7.90758e-06 1.04432e-05 8.87913e-06 6.34944e-06 4.8e-06 1.31754e-05 6.86776e-06 8.39511e-07 5.5329e-07 1.13556e-05 6.97228e-06 3.99448e-06 1.15709e-05 1.10246e-05 3.59449e-06 1.30753e-05 3.0152e-06 8.70599e-06 1.38167e-05 7.27682e-06 1.12069e-05 9.17507e-06 4.07579e-07 6.65065e-06 8.92932e-07 9.34741e-06 5.99249e-06 8.97565e-06 4.42295e-06 9.2009e-06 9.85289e-06 4.03536e-06 1.36591e-05 1.25726e-05 1.27782e-05 5.45086e-06 4.05683e-07 4.14564e-06 7.79109e-06 4.20407e-06