TITLE = "mos2d"
VARIABLES = "x", "y", "Acceptors", "AtContactNode", "BodyDoping", "ContactNSurfaceNormal_x", "ContactNSurfaceNormal_y", "ContactSurfaceArea", "Donors", "DrainDoping", "DrainDoping1", "DrainDoping2", "Interface_charge", "IntrinsicCharge", "IntrinsicCharge:Potential", "IntrinsicElectrons", "IntrinsicElectrons:Potential", "IntrinsicHoles", "IntrinsicHoles:Potential", "NSurfaceNormal_x", "NSurfaceNormal_y", "NetDoping", "NodeVolume", "Potential", "PotentialIntrinsicCharge", "PotentialIntrinsicCharge:Potential", "Potential_prev", "SourceDoping", "SourceDoping1", "SourceDoping2", "SurfaceArea", "bodynodemodel", "bodynodemodel:Potential", "coordinate_index", "drainnodemodel", "drainnodemodel:Potential", "gatenodemodel", "gatenodemodel:Potential", "node_index", "sourcenodemodel", "sourcenodemodel:Potential", "well_Doping", "EParallel", "EdgeCouple", "EdgeInverseLength", "EdgeLength", "EdgeNodeVolume", "ElectricField", "ElectricField:Potential@n0", "ElectricField:Potential@n1", "Potential@n0", "Potential@n1", "PotentialEdgeFlux", "PotentialEdgeFlux:Potential@n0", "PotentialEdgeFlux:Potential@n1", "contactcharge_edge", "contactcharge_edge:Potential@n0", "contactcharge_edge:Potential@n1", "edge_index", "mu_n", "mu_n:Potential@n0", "mu_n:Potential@n1", "mu_p", "mu_p:Potential@n0", "mu_p:Potential@n1", "unitx", "unity", "ElementEdgeCouple", "ElementNodeVolume"
ZONE T="bulk" NODES=1840, ELEMENTS=3507, DATAPACKING=BLOCK, ZONETYPE=FETRIANGLE, VARLOCATION=([68,69]=CELLCENTERED)
0 8.6e-05 8.6e-05 7.6e-05 1e-05 0 2.96552e-06 5.93103e-06 8.89655e-06 1.18621e-05 1.48276e-05 1.77931e-05 2.07586e-05 2.37241e-05 2.66897e-05 2.96552e-05 3.26207e-05 3.55862e-05 3.85517e-05 4.15172e-05 4.44828e-05 4.74483e-05 5.04138e-05 5.33793e-05 5.63448e-05 5.93103e-05 6.22759e-05 6.52414e-05 6.82069e-05 7.11724e-05 7.41379e-05 7.71034e-05 8.0069e-05 8.30345e-05 8.6e-05 8.6e-05 8.6e-05 8.6e-05 8.6e-05 8.6e-05 8.6e-05 8.6e-05 8.6e-05 8.6e-05 8.6e-05 8.6e-05 8.6e-05 8.6e-05 8.6e-05 8.6e-05 8.6e-05 8.6e-05 8.6e-05 8.6e-05 8.6e-05 8.6e-05 8.6e-05 8.6e-05 8.6e-05 8.6e-05 8.6e-05 8.5e-05 8.4e-05 8.3e-05 8.2e-05 8.1e-05 8e-05 7.9e-05 7.8e-05 7.7e-05 7.5e-05 7.4e-05 7.3e-05 7.2e-05 7.1e-05 7e-05 6.9e-05 6.8e-05 6.7e-05 6.6e-05 6.5e-05 6.4e-05 6.3e-05 6.2e-05 6.1e-05 6e-05 5.9e-05 5.8e-05 5.7e-05 5.6e-05 5.5e-05 5.4e-05 5.3e-05 5.2e-05 5.1e-05 5e-05 4.9e-05 4.8e-05 4.7e-05 4.6e-05 4.5e-05 4.4e-05 4.3e-05 4.2e-05 4.1e-05 4e-05 3.9e-05 3.8e-05 3.7e-05 3.6e-05 3.5e-05 3.4e-05 3.3e-05 3.2e-05 3.1e-05 3e-05 2.9e-05 2.8e-05 2.7e-05 2.6e-05 2.5e-05 2.4e-05 2.3e-05 2.2e-05 2.1e-05 2e-05 1.9e-05 1.8e-05 1.7e-05 1.6e-05 1.5e-05 1.4e-05 1.3e-05 1.2e-05 1.1e-05 9e-06 8e-06 7e-06 6e-06 5e-06 4e-06 3e-06 2e-06 1e-06 0 0 0 0 0 0 0 0 0 0 0 0 0 0 0 0 0 0 0 0 0 0 0 0 0 0 0 2.45e-05 3.03793e-05 3.64919e-05 4.24997e-05 4.84173e-05 5.44006e-05 6.05e-05 6.64314e-05 1.84016e-05 8.44735e-05 1.5819e-06 7.13625e-05 1.3456e-05 1.36842e-06 8.46393e-05 5.76509e-05 4.57416e-05 3.43062e-05 7.55416e-05 9.4933e-06 2.21142e-05 8.48049e-05 1.10337e-06 8.37522e-05 1.91083e-06 7.95309e-05 6.70425e-05 6.52851e-06 6.35e-05 2.15e-05 2.74592e-05 3.34663e-05 4.56051e-05 3.94724e-05 5.15327e-05 5.74751e-05 7.79215e-07 8.47641e-05 1.32726e-05 7.56932e-05 3.50895e-06 8.24372e-05 2.10981e-06 8.40022e-05 8.42102e-05 1.54873e-06 1.42085e-06 8.45283e-05 8.47454e-05 1.25797e-06 8.50728e-05 9.34436e-07 5.20465e-05 2.81724e-05 3.99916e-05 1.15e-05 7.75294e-05 7.34475e-05 1.54694e-05 6.96438e-05 7.46206e-06 8.14067e-05 1.43808e-06 8.45094e-05 2.16052e-06 7.85816e-05 7.71571e-05 7.43612e-05 7.57819e-05 7.3095e-05 7.44711e-05 7.18254e-05 7.31238e-05 7.06704e-05 7.18926e-05 6.96591e-05 7.08041e-05 6.85681e-05 6.96707e-05 6.75127e-05 6.85908e-05 6.64359e-05 6.75001e-05 6.54338e-05 6.64927e-05 6.44538e-05 6.55008e-05 6.35272e-05 6.45499e-05 6.26308e-05 6.15966e-05 6.07042e-05 5.96851e-05 5.8796e-05 5.77803e-05 5.69023e-05 5.58795e-05 5.50032e-05 5.39807e-05 5.31048e-05 5.2083e-05 5.12079e-05 5.01872e-05 4.93131e-05 4.82934e-05 4.74204e-05 4.64062e-05 4.55044e-05 4.45133e-05 4.36024e-05 4.26232e-05 4.17313e-05 4.07242e-05 3.98666e-05 3.88397e-05 3.79824e-05 3.69906e-05 3.61241e-05 3.51263e-05 3.42311e-05 3.32387e-05 3.23698e-05 3.13663e-05 3.04955e-05 2.95007e-05 2.8642e-05 2.76428e-05 2.67875e-05 2.5787e-05 2.49473e-05 6.19056e-05 5.41271e-05 4.66141e-05 4.08065e-05 3.53032e-05 2.59232e-05 2.41304e-05 2.31477e-05 2.23496e-05 2.50684e-05 2.1369e-05 2.0565e-05 5.67629e-05 6.64421e-05 2.6651e-05 1.95466e-05 1.87677e-05 1.97503e-05 1.80535e-05 1.89718e-05 1.7348e-05 3.78537e-05 1.82133e-05 1.66361e-05 4.93817e-05 4.35009e-05 3.22784e-05 1.64483e-05 1.74775e-05 1.59586e-05 1.67792e-05 1.82623e-05 1.5295e-05 1.44622e-05 1.38188e-05 6.55871e-05 1.29904e-05 1.2361e-05 1.75855e-05 1.90173e-05 6.96536e-05 1.31685e-05 1.16602e-05 2.03596e-05 1.85185e-05 1.93646e-05 1.74812e-05 1.8361e-05 1.64012e-05 1.7308e-05 1.09205e-05 1.02004e-05 1.53184e-05 1.62044e-05 1.82942e-05 1.44223e-05 1.71237e-05 1.93274e-05 1.83793e-05 1.97612e-05 1.26697e-05 1.81257e-05 2.03484e-05 1.58858e-05 1.91398e-05 2.04896e-05 2.11182e-05 2.18383e-05 2.24704e-05 2.3191e-05 2.38245e-05 2.45466e-05 2.51815e-05 2.58968e-05 2.65397e-05 2.72707e-05 2.79043e-05 2.86344e-05 2.92667e-05 3.00061e-05 3.06378e-05 3.13766e-05 3.20087e-05 3.27395e-05 3.33773e-05 3.41111e-05 3.47542e-05 3.54976e-05 3.61288e-05 3.68659e-05 3.751e-05 3.82538e-05 3.88921e-05 3.9634e-05 4.02747e-05 4.10236e-05 4.16598e-05 4.23982e-05 4.30444e-05 4.37389e-05 4.44254e-05 4.51337e-05 4.5815e-05 4.65541e-05 4.72114e-05 4.79619e-05 4.86079e-05 4.9359e-05 5.00003e-05 5.07455e-05 5.13966e-05 5.2141e-05 5.2794e-05 5.35475e-05 5.41959e-05 5.4949e-05 5.55913e-05 5.63501e-05 5.69978e-05 5.77532e-05 5.84003e-05 5.91477e-05 5.98018e-05 6.05506e-05 6.12077e-05 6.19369e-05 6.26111e-05 6.33402e-05 6.40176e-05 6.47451e-05 6.54249e-05 6.61722e-05 6.68369e-05 6.75675e-05 6.82438e-05 6.89937e-05 6.9655e-05 7.04055e-05 7.10656e-05 7.17937e-05 7.24707e-05 7.32151e-05 7.38793e-05 7.31202e-05 7.46087e-05 7.52841e-05 7.60487e-05 7.53456e-05 7.67567e-05 6.89105e-05 6.83214e-05 3.12249e-05 6.40065e-05 5.85074e-05 5.06569e-05 5.28868e-05 4.73294e-05 5.76113e-05 7.67582e-05 9.50214e-06 8.86242e-06 1.33205e-05 1.24445e-05 4.30751e-05 7.60884e-05 7.74048e-05 3.48696e-05 3.80558e-05 6.45678e-05 4.37788e-05 3.89913e-05 2.93847e-05 1.98659e-05 1.85603e-05 2.5196e-05 1.69092e-05 1.46062e-05 7.67803e-05 7.55045e-05 7.80608e-05 6.7887e-05 7.34679e-05 7.87645e-05 8.10553e-06 8.72782e-06 7.5269e-06 8.252e-06 6.9288e-06 7.68789e-06 2.3111e-05 1.1333e-05 1.04821e-05 2.72385e-05 7.93415e-05 1.15685e-05 9.67086e-06 1.07062e-05 1.92564e-05 1.79912e-05 6.4241e-06 7.17146e-06 8.40215e-06 2.9495e-05 5.03643e-05 5.01224e-05 5.57143e-05 3.2126e-05 5.79072e-05 6.12645e-05 7.10847e-05 6.55164e-05 6.7352e-05 2.26186e-05 7.89329e-06 9.09728e-06 6.76413e-06 8.88278e-06 9.97331e-06 7.86972e-05 7.99453e-05 7.28594e-06 6.65008e-05 6.82559e-05 6.91484e-05 7.00288e-05 7.0924e-05 7.18064e-05 7.26978e-05 7.35785e-05 7.4471e-05 7.53564e-05 7.62583e-05 7.5265e-05 7.7214e-05 7.61724e-05 7.49525e-05 1.56558e-05 1.32981e-05 7.9192e-06 1.23673e-05 1.80259e-05 7.59578e-05 7.74374e-05 5.26153e-05 6.19801e-05 6.05685e-05 5.35581e-05 4.64962e-05 3.41219e-05 4.08896e-05 2.15484e-05 2.25862e-05 8.15608e-06 7.7172e-05 7.61423e-05 8.05005e-05 7.57272e-05 1.72951e-05 1.67577e-05 6.03041e-06 1.09595e-05 2.3764e-05 2.48256e-05 2.60656e-05 2.71185e-05 2.5881e-05 2.81988e-05 2.94187e-05 3.0532e-05 3.17708e-05 3.28704e-05 3.4114e-05 3.52098e-05 3.64429e-05 3.75583e-05 3.87877e-05 3.99095e-05 4.11067e-05 4.22554e-05 4.34749e-05 4.46087e-05 4.57846e-05 4.69564e-05 4.82187e-05 4.93241e-05 5.06025e-05 5.1689e-05 5.29189e-05 5.40381e-05 5.53552e-05 5.64737e-05 3.16055e-05 3.63038e-05 2.69637e-05 4.34002e-05 5.51811e-05 5.76696e-05 9.35228e-06 4.79104e-05 1.74319e-05 1.62214e-05 1.55394e-05 1.50159e-05 9.94109e-06 1.67257e-05 1.9168e-05 7.08719e-05 6.404e-06 7.93409e-05 8.05441e-05 1.21992e-05 8.57803e-06 9.78046e-06 1.03017e-05 1.09051e-05 1.42508e-05 2.04782e-05 7.81068e-05 7.71685e-05 7.90943e-05 5.77237e-05 6.73909e-05 6.56936e-05 7.55909e-05 7.43963e-05 7.37555e-05 7.32059e-05 7.09945e-06 7.66371e-05 7.8128e-05 7.88939e-05 7.96227e-05 1.25717e-05 7.25636e-05 7.20266e-05 7.13738e-05 7.08392e-05 7.01864e-05 6.96517e-05 6.89994e-05 6.84653e-05 6.78122e-05 6.728e-05 6.66292e-05 6.60967e-05 6.54454e-05 6.49241e-05 6.42862e-05 6.37799e-05 6.30985e-05 6.25917e-05 6.19182e-05 6.13743e-05 6.07359e-05 6.01921e-05 5.95613e-05 5.90282e-05 5.83279e-05 5.78537e-05 5.71967e-05 5.66913e-05 5.60509e-05 3.53751e-05 1.68954e-05 1.80482e-05 3.99742e-05 2.25908e-05 3.07509e-05 1.78307e-05 8.60351e-06 1.36366e-05 7.18916e-05 8.03776e-05 7.05261e-06 8.59565e-06 4.7017e-05 5.55375e-05 5.48917e-05 5.4361e-05 5.37278e-05 5.32141e-05 5.25696e-05 1.97101e-05 1.39363e-05 2.4742e-05 7.49884e-05 7.6152e-05 7.8197e-05 7.72077e-05 6.33133e-06 5.43824e-05 5.20482e-05 5.14403e-05 5.08947e-05 5.02694e-05 6.65778e-05 6.49083e-05 1.0434e-05 1.16502e-05 7.43686e-05 5.63485e-05 5.88603e-05 6.01493e-05 6.13774e-05 5.38351e-05 6.7924e-05 4.97348e-05 4.90824e-05 4.8589e-05 4.79836e-05 4.7443e-05 4.68178e-05 7.88435e-05 8.03906e-05 7.9913e-05 8.1128e-05 7.85968e-05 8.17099e-05 5.53017e-06 5.39686e-06 6.06268e-06 2.02769e-05 7.96808e-05 8.10798e-05 6.59818e-05 1.02207e-05 8.19094e-06 7.91929e-05 7.82367e-05 7.31037e-05 7.26624e-05 7.50335e-05 4.88804e-06 6.20207e-05 7.47559e-06 4.84507e-05 4.62586e-05 4.56506e-05 4.50638e-05 4.45058e-05 4.5003e-05 4.3847e-05 4.33146e-05 4.26694e-05 4.21535e-05 4.14958e-05 4.09822e-05 4.03241e-05 3.98194e-05 3.91545e-05 3.86526e-05 3.79897e-05 3.7471e-05 3.6822e-05 3.63147e-05 3.56632e-05 3.5157e-05 3.45064e-05 3.40016e-05 3.34048e-05 3.28578e-05 3.22318e-05 3.17062e-05 3.10524e-05 3.05647e-05 2.99448e-05 2.94233e-05 2.87324e-05 7.03426e-05 5.40591e-05 6.25232e-06 7.02299e-06 8.22896e-05 1.14454e-05 1.08232e-05 3.73886e-05 5.20435e-05 7.95315e-05 4.07586e-05 6.00052e-05 7.51304e-05 7.61923e-05 8.12515e-05 8.03007e-05 7.02557e-05 6.56136e-05 1.21544e-05 1.28254e-05 8.00102e-05 8.10049e-05 2.82672e-05 2.76293e-05 2.71379e-05 2.64794e-05 2.69443e-05 2.58202e-05 2.53189e-05 2.46634e-05 2.41691e-05 2.35031e-05 2.30118e-05 2.23462e-05 2.18566e-05 1.65494e-05 6.26322e-05 6.39035e-05 6.26214e-05 2.56323e-05 2.75933e-05 8.04208e-05 2.46766e-05 2.57677e-05 6.40151e-05 6.32344e-05 5.65348e-05 2.68044e-05 2.60161e-05 2.76665e-05 2.68744e-05 2.84971e-05 2.52789e-05 5.50309e-05 5.23992e-05 5.6196e-05 3.81423e-05 6.25377e-05 8.17776e-05 1.75428e-05 1.86363e-05 1.637e-05 3.02999e-05 6.82298e-05 8.06302e-05 1.69732e-05 2.1241e-05 7.84312e-05 6.14368e-05 6.95619e-05 5.84922e-05 3.38373e-05 4.04946e-05 8.20334e-05 6.23487e-05 6.15667e-05 6.06884e-05 6.00054e-05 2.03122e-05 2.92888e-05 3.01318e-05 3.09121e-05 3.17566e-05 3.24939e-05 3.33851e-05 2.93643e-05 3.40174e-05 3.49953e-05 3.56505e-05 3.66115e-05 3.73742e-05 3.82557e-05 3.90633e-05 3.98883e-05 4.07156e-05 4.15346e-05 4.23307e-05 4.31676e-05 4.38983e-05 4.4791e-05 4.55871e-05 4.64338e-05 4.72172e-05 4.80704e-05 4.88556e-05 4.9708e-05 5.04937e-05 5.13462e-05 5.21321e-05 5.29849e-05 5.37711e-05 5.46242e-05 5.54106e-05 5.62398e-05 3.58833e-05 5.54685e-05 5.90321e-05 1.8978e-05 6.38631e-05 4.69001e-05 1.20496e-05 6.51176e-05 7.33176e-06 6.15826e-06 1.37657e-05 1.44847e-05 5.26702e-05 8.0135e-05 7.73908e-06 9.24614e-06 5.29718e-06 1.48434e-05 4.27688e-05 6.34465e-05 8.286e-05 2.89368e-05 8.22926e-05 2.25211e-05 3.46373e-05 1.70335e-05 3.2631e-05 2.81543e-05 2.67473e-05 2.93625e-05 4.89526e-05 1.52934e-05 5.03688e-05 7.51326e-05 2.40004e-05 6.74121e-05 6.89798e-05 2.1414e-05 4.43762e-05 4.56397e-05 3.81891e-05 1.10815e-05 1.21262e-05 9.94599e-06 2.61184e-05 2.45562e-05 2.37073e-05 2.30021e-05 8.0543e-05 7.93286e-05 7.89655e-05 9.14634e-06 1.11066e-05 3.23216e-05 4.31023e-05 4.62148e-06 3.53088e-06 7.58314e-05 7.4295e-05 2.48246e-05 2.07564e-05 2.0036e-05 7.79532e-05 4.23429e-05 3.99023e-06 4.6804e-06 8.10293e-05 8.24598e-05 7.71872e-05 6.08113e-05 5.90597e-05 2.16772e-05 8.19725e-05 2.37366e-05 7.56307e-05 7.67645e-05 7.44482e-05 3.91127e-05 7.82596e-05 8.04019e-05 7.93909e-05 3.16956e-05 5.21367e-05 6.41141e-05 8.18458e-05 8.04586e-05 1.43345e-05 1.34606e-05 1.19743e-05 1.25792e-05 1.41314e-05 2.52943e-05 4.56553e-05 2.63374e-05 2.76238e-05 2.64642e-05 2.85675e-05 4.50236e-05 8.20378e-05 2.2942e-05 6.26506e-05 8.11514e-05 2.435e-05 2.54602e-05 3.44791e-06 4.2636e-06 5.99319e-05 5.98037e-05 6.3907e-05 6.13118e-05 5.32121e-06 4.0134e-06 6.22778e-06 2.95728e-05 3.05319e-05 5.13214e-05 4.97781e-05 2.15588e-05 5.72076e-05 8.33758e-05 8.28605e-05 4.80091e-05 1.34358e-05 1.00301e-05 7.59064e-05 1.13808e-05 1.01563e-05 7.93444e-05 8.20267e-05 8.31744e-05 5.30233e-05 8.33479e-05 2.68642e-05 2.14829e-05 7.73757e-05 7.7916e-05 7.8977e-05 1.06957e-05 8.17948e-05 8.26801e-05 5.70122e-06 3.91298e-06 2.21477e-05 2.28474e-05 2.14898e-05 1.27647e-05 7.8234e-05 3.85315e-06 8.34483e-05 1.33681e-05 1.40631e-05 6.31214e-05 8.40977e-05 8.34633e-05 5.36546e-05 5.73703e-05 5.62523e-05 7.80349e-05 1.60731e-05 2.9184e-06 4.27541e-06 7.61222e-05 6.02563e-05 6.13906e-05 5.9195e-05 6.03076e-05 5.81454e-05 5.93521e-05 2.59484e-06 3.62851e-06 3.26187e-06 4.62028e-06 6.64584e-05 5.62687e-05 1.09105e-05 5.08798e-06 4.53031e-06 3.16514e-06 3.94152e-06 2.56005e-06 3.35016e-06 4.56307e-06 4.00764e-06 2.88833e-06 3.54062e-06 4.6964e-06 4.21355e-06 3.07363e-06 3.73764e-06 4.86123e-06 4.40936e-06 5.46808e-06 5.96979e-06 6.56294e-06 2.6566e-06 7.0741e-06 7.69477e-06 4.98651e-06 5.42297e-06 1.52309e-05 1.45592e-05 2.07112e-05 8.37444e-06 5.73256e-05 5.60191e-05 5.51839e-05 6.99373e-05 7.06546e-05 8.44821e-05 8.23087e-05 8.15289e-05 1.56972e-05 7.28124e-05 6.98506e-05 6.87616e-05 1.17021e-05 1.35027e-05 4.16243e-05 4.10753e-05 4.22624e-05 4.33786e-05 4.39122e-05 4.44764e-05 4.56819e-05 4.39434e-05 3.99544e-05 3.93031e-05 3.88376e-05 3.7602e-05 4.85613e-05 3.3436e-05 5.21854e-05 5.15297e-05 5.60001e-05 5.73358e-05 5.68221e-05 5.57701e-05 5.50522e-05 5.38547e-05 5.3323e-05 5.79612e-05 5.90665e-05 2.36724e-05 2.30877e-05 7.26295e-05 7.16237e-05 7.23017e-05 7.11807e-05 6.24484e-05 6.33127e-05 6.67647e-05 6.74107e-05 6.8568e-05 6.80293e-05 6.62761e-05 6.51451e-05 6.44842e-05 6.41126e-05 6.33463e-05 6.2452e-05 6.144e-05 6.48912e-05 6.19222e-05 5.37765e-05 5.05635e-05 4.72892e-05 4.80385e-05 4.396e-05 4.07385e-05 3.74808e-05 3.66995e-05 3.49677e-05 3.4207e-05 3.76684e-05 3.6569e-05 3.43745e-05 3.55565e-05 3.7773e-05 3.3539e-05 3.48667e-05 3.31133e-05 5.14919e-05 5.08135e-05 4.95147e-05 5.01452e-05 4.87161e-05 4.81345e-05 5.21555e-05 5.36154e-05 4.66684e-05 4.67716e-05 5.98848e-05 5.925e-05 5.78642e-05 5.85853e-05 6.06054e-05 6.19283e-05 6.26263e-05 6.32603e-05 6.44568e-05 6.54479e-05 6.68598e-05 6.76847e-05 5.70974e-05 5.64102e-05 5.50386e-05 6.90081e-05 3.34872e-05 3.29259e-05 3.15274e-05 3.0745e-05 3.00492e-05 7.15054e-05 7.21362e-05 7.32773e-05 7.10088e-05 6.98937e-05 7.04615e-05 3.10049e-05 3.03529e-05 2.8645e-05 2.77403e-05 2.3899e-05 4.59068e-05 4.25511e-05 4.44858e-05 6.91409e-05 6.57777e-05 6.6656e-05 2.76851e-05 6.96952e-05 7.03581e-05 7.17164e-05 7.24931e-05 7.3942e-05 7.20169e-05 7.42333e-05 7.07827e-05 7.17705e-05 7.06416e-05 7.27883e-05 8.29869e-05 5.48908e-05 5.08391e-05 4.81359e-05 4.71329e-05 4.5502e-05 4.44627e-05 4.28434e-05 4.18194e-05 4.01959e-05 3.91842e-05 3.75681e-05 3.6642e-05 3.4964e-05 3.4439e-05 3.59568e-05 3.33472e-05 3.13407e-05 2.90716e-05 4.87425e-05 4.08117e-05 1.26499e-05 1.81973e-05 1.93079e-05 7.96539e-05 1.96475e-05 7.28195e-05 4.56075e-05 8.17143e-05 3.69668e-05 3.58019e-05 3.53392e-05 7.69566e-05 3.34426e-06 2.24946e-06 1.61436e-05 1.54862e-05 1.65313e-05 1.46588e-05 5.42919e-05 3.12571e-05 3.18984e-05 3.01593e-05 7.47432e-05 4.05049e-05 2.14086e-05 2.78307e-05 2.66828e-05 2.59858e-05 2.54019e-05 2.60707e-05 4.92689e-05 4.99033e-05 4.81118e-05 4.77266e-05 3.32175e-05 3.9005e-05 3.71797e-05 3.98851e-05 2.87552e-05 3.88505e-05 4.10746e-05 3.99558e-05 4.21453e-05 4.32477e-05 4.42819e-05 4.12638e-05 4.53375e-05 4.62802e-05 7.6366e-05 2.04502e-05 5.18973e-05 5.28344e-05 5.08036e-05 5.19473e-05 4.98084e-05 4.87404e-05 2.12868e-05 4.17561e-05 4.24773e-05 4.03762e-05 3.98909e-05 3.84048e-05 3.76393e-05 3.62403e-05 3.55945e-05 3.42882e-05 6.85784e-05 6.94557e-05 6.74555e-05 5.96249e-05 6.0298e-05 2.38666e-05 1.46899e-05 9.29725e-06 7.99472e-05 8.10256e-05 8.26694e-05 1.03682e-05 8.90936e-06 6.2271e-06 7.58704e-06 1.02176e-05 5.08157e-06 8.74232e-06 1.17958e-05 1.46912e-05 1.6206e-05 1.90979e-05 1.32321e-05 1.34929e-05 1.45703e-05 2.15851e-05 1.82318e-06 8.49474e-05 1.25884e-06 7.8224e-05 7.7465e-05 2.47547e-06 4.50312e-06 5.77267e-05 7.38373e-05 2.51671e-05 1.88249e-05 2.84037e-05 1.03885e-06 2.27724e-06 4.28017e-05 3.71244e-05 2.09432e-06 5.77752e-06 1.17564e-05 1.27751e-05 2.40218e-06 4.49169e-05 5.98827e-06 5.62288e-05 5.44323e-05 8.52227e-06 1.54916e-05 1.60237e-05 7.74211e-05 1.77536e-05 2.13977e-05 2.78763e-05 2.86385e-05 6.51736e-05 6.61045e-05 6.37212e-05 6.246e-05 5.89791e-05 5.8505e-05 1.63099e-06 8.81473e-06 1.65423e-05 3.22266e-05 4.66523e-05 1.34716e-05 7.29649e-05 2.48707e-05 8.43245e-05 8.22299e-05 8.23766e-05 8.41151e-05 1.37047e-06 8.45526e-05 8.46267e-05 8.30567e-05 1.75643e-06 1.22962e-06 8.47155e-05 8.34486e-05 8.34552e-05 8.47256e-05 8.3974e-05 8.49703e-05 8.50212e-05 1.14833e-06 7.08909e-06 8.17528e-06 1.37792e-05 2.23714e-05 2.47623e-06 3.63448e-05 6.63571e-06 1.15583e-05 2.39516e-05 8.11326e-05 6.07969e-05 2.33906e-05 6.63942e-05 4.4098e-06 6.25433e-05 5.20864e-05 1.78049e-05 4.22233e-05 6.91191e-05 6.37538e-05 7.67979e-05 1.50452e-05 7.82266e-05 4.58416e-05 1.89218e-05 6.91302e-05 5.31215e-06 6.82633e-05 4.9659e-05 2.94944e-05 2.8603e-05 5.68035e-05 7.15228e-05 8.34977e-05 2.84585e-05 3.4812e-06 2.04082e-05 7.39312e-05 8.40271e-05 8.19835e-06 2.39863e-06 8.06745e-05 8.01253e-05 1.05e-05 7.65297e-05 7.45e-05 7.50207e-05 1.25e-05 1.44986e-05 1.94836e-05 2.25e-05 2.04973e-05 5.65e-05 7.39118e-05 7.38297e-05 3.45509e-05 9.36602e-06 3.231e-05 1.98445e-06 5.12668e-06 4.44269e-05 1.06742e-05 7.90974e-05 8.27675e-05 6.61461e-06 4.49963e-05 5.85028e-05 4.0033e-05 7.71826e-05 1.7516e-05 6.47106e-05 5.98062e-05 1.60878e-05 8.1507e-05 3.46001e-05 3.12985e-05 8.33719e-05 8.11185e-05 2.517e-05 7.488e-06 3.6173e-05 2.28414e-05 7.84142e-05 3.86341e-05 6.83721e-05 7.85351e-06 1.2203e-05 1.41953e-05 2.85038e-05 2.21447e-05 7.03565e-05 7.07584e-05 7.4544e-05 3.50104e-05 6.75023e-05 6.71457e-05 2.42468e-05 6.12826e-05 5.52661e-05 5.30606e-05 4.69871e-05 6.1463e-05 6.00971e-05 2.43848e-05 1.51434e-05 5.46484e-05 5.10429e-05 3.20484e-05 5.85791e-05 6.13671e-05 7.43065e-05 2.9338e-05 5.13076e-05 5.4617e-05 4.91804e-05 4.95986e-05 2.58828e-05 5.20733e-05 5.28126e-05 5.80326e-05 4.23184e-05 3.89522e-05 3.26757e-05 3.18781e-05 2.44788e-05 3.37963e-05 6.47669e-05 6.24933e-05 2.3642e-05 9.61742e-06 7.00366e-05 3.00744e-05 2.17494e-05 2.03615e-05 6.27524e-06 7.1617e-05 7.733e-05 1.91329e-05 5.75407e-05 2.2e-05 1.44333e-05 1.93539e-05 3.8402e-05 3.34038e-05 8.09671e-05 1.01457e-05 7.18773e-06 7.85799e-05 9.44833e-06 2.69428e-05 1.00603e-05 1.71203e-05 3.0574e-05 7.81684e-05 5.53667e-05 7.19032e-05 8.38168e-05 8.43162e-05 2.35e-05 4.15571e-05 5.95616e-05 1.6441e-05 7.33474e-05 6.81626e-05 6.76334e-05 4.15804e-05 7.32721e-05 5.03586e-05 7.35681e-05 5.04832e-05 5.0984e-05 2.9817e-05 2.54735e-06 2.03155e-05 3.70136e-05 7.99587e-05 8.39592e-05 8.16027e-05 3.04612e-05 6.14552e-06 8.55246e-06 1.58244e-05 7.3631e-05 8.01524e-07 7.62019e-05 4.3178e-05 3.74992e-05 4.80649e-05 2.85743e-05 8.93258e-06 6.49028e-05 1.94934e-06 6.59981e-05 3.94112e-05 2.95939e-06 4.15652e-05 5.9119e-05 1.07011e-06 6.50008e-05 7.55756e-06 3.1772e-05 6.97074e-05 1.5151e-06 9.84062e-06 8.2837e-05 9.84286e-07 8.35906e-05 6.58238e-05 3.59676e-05 4.88281e-05 3.29371e-05 7.23748e-05 3.85134e-05 1.96961e-05 5.45294e-05 6.02252e-06 4.37349e-05 2.95922e-05 2.09612e-05 4.11778e-05 4.19595e-05 3.64403e-05 6.38667e-06 6.06153e-05 1.49713e-05 3.98455e-05 7.51293e-05 6.16511e-05 4.31496e-05 3.96302e-05 5.88371e-05 6.44491e-05 8.18957e-05 5.34447e-05 4.5e-06 5.25235e-05 9.51299e-06 3.83222e-05 2.73273e-05 6.92011e-05 2.09914e-05 3.55269e-05 6.32979e-05 2.11815e-05 5.50447e-06 1.079e-05 3.4e-05 5.75553e-05 8.01195e-05 3.67831e-05 1.3697e-05 4.99038e-05 7.16389e-05 2.2542e-05 1.90483e-05 5.13391e-05 4.13909e-05 4.42788e-05 8.51416e-05 1.30267e-05 3.54764e-05 7.40236e-05 2.33457e-05 1.76007e-05 1.12766e-05 7.6522e-05 7.0746e-06 1.99352e-05 6.85742e-05 2.35737e-05 8.39441e-05 6.75056e-05 8.11625e-05 1.99311e-05 8.52335e-05 8.23364e-05 3.95818e-06 2.47644e-05 8.3434e-05 4.94618e-05 4.64792e-05 3.2467e-05 1.55911e-05 2.20801e-05 4.94998e-05 7.1779e-05 4.57435e-05 6.03215e-05 4.50865e-05 8.23908e-05 8.23987e-05 6.35413e-05 3.88403e-05 7.04935e-05 1.14218e-05 5.2886e-05 4.59765e-05 4.87887e-05 6.69128e-05 1.74956e-06 2.45486e-05 3.21436e-06 4.79069e-05 7.74881e-05 1.18312e-05 2.02584e-05 2.53705e-05 2.20047e-05 2.04872e-05 4.46953e-05 2.69717e-05 4.8815e-05 5.35787e-05 1.06035e-05 4.7766e-05 5.07828e-05 3.11335e-05 1.30809e-05 5.69494e-06 6.26692e-05 3.32049e-05 3.68096e-05 3.14598e-05 5.7132e-05 8.37578e-05 9.48197e-06 2.94529e-05 5.14739e-05 2.51642e-06 6.61347e-05 8.22962e-05 3.13575e-05 3.06564e-06 4.4142e-05 2.19614e-06 8.33981e-06 8.41676e-05 7.53488e-05 4.7017e-05 2.35265e-05 7.94791e-05 2.03261e-06 4.33741e-05 5.50448e-05 7.81562e-05 6.55923e-05 3.41934e-06 2.56808e-05 5.05269e-06 6.32637e-05 4.75579e-05 5.43193e-05 7.92194e-05 5.62948e-05 4.73827e-05 3.10308e-05 8.18464e-05 4.45362e-05 2.09405e-06 4.85346e-06 8.5268e-05 7.31983e-07 1.58531e-06 1.24993e-05 6.11344e-05 4.04561e-06 8.08544e-05 1.83329e-06 3.40925e-05 6.67325e-05 2.24243e-05 5.29445e-05 6.49738e-05 8.23653e-05 1.33911e-05 2.65653e-05 4.49603e-05 1.90465e-05 1.24019e-05 5.57405e-05 7.24343e-05 8.42856e-05 8.09913e-05 1.18305e-05 2.09937e-05 5.68701e-05 4.65e-05 4.66485e-05 2.07837e-05 6.54803e-05 2.74488e-05 3.01194e-06 5.54431e-05 5.54257e-06 4.16378e-05 2.94967e-05 4.32479e-05 3.08085e-05 8.15e-05 4.71057e-06 7.98694e-05 8.39455e-05 8.32323e-05 2.71503e-06 4.32376e-05 2.35245e-05 1.41305e-05 5.44692e-05 1.16967e-05 2.94304e-05 8.32863e-05 3.2545e-05 5.73876e-05 3.33097e-05 7.22635e-06 6.13113e-05 3.29861e-05 4.10495e-05 4.00096e-06 1.76003e-05 2.78928e-05 5.86963e-05 4.65725e-05 1.53697e-05 2.67446e-05 1.47049e-05 2.16727e-05 6.7912e-05 2.3158e-05 6.4246e-05 4.53461e-05 9.85665e-06 1.55599e-05 3.82327e-05 4.30463e-05 5.09289e-05 5.88874e-05 8.3e-05