TITLE = "mos2d"
VARIABLES = "x", "y", "Acceptors", "AtContactNode", "BodyDoping", "ContactNSurfaceNormal_x", "ContactNSurfaceNormal_y", "ContactSurfaceArea", "Donors", "DrainDoping", "DrainDoping1", "DrainDoping2", "Interface_charge", "IntrinsicCharge", "IntrinsicCharge:Potential", "IntrinsicElectrons", "IntrinsicElectrons:Potential", "IntrinsicHoles", "IntrinsicHoles:Potential", "NSurfaceNormal_x", "NSurfaceNormal_y", "NetDoping", "NodeVolume", "Potential", "PotentialIntrinsicCharge", "PotentialIntrinsicCharge:Potential", "Potential_prev", "SourceDoping", "SourceDoping1", "SourceDoping2", "SurfaceArea", "bodynodemodel", "bodynodemodel:Potential", "coordinate_index", "drainnodemodel", "drainnodemodel:Potential", "gatenodemodel", "gatenodemodel:Potential", "node_index", "sourcenodemodel", "sourcenodemodel:Potential", "well_Doping", "EParallel", "EdgeCouple", "EdgeInverseLength", "EdgeLength", "EdgeNodeVolume", "ElectricField", "ElectricField:Potential@n0", "ElectricField:Potential@n1", "Potential@n0", "Potential@n1", "PotentialEdgeFlux", "PotentialEdgeFlux:Potential@n0", "PotentialEdgeFlux:Potential@n1", "contactcharge_edge", "contactcharge_edge:Potential@n0", "contactcharge_edge:Potential@n1", "edge_index", "mu_n", "mu_n:Potential@n0", "mu_n:Potential@n1", "mu_p", "mu_p:Potential@n0", "mu_p:Potential@n1", "unitx", "unity", "ElementEdgeCouple", "ElementNodeVolume"
ZONE T="bulk" NODES=2097, ELEMENTS=4005, DATAPACKING=BLOCK, ZONETYPE=FETRIANGLE, VARLOCATION=([68,69]=CELLCENTERED)
0 9.8e-05 9.8e-05 8.8e-05 1e-05 0 2.9697e-06 5.93939e-06 8.90909e-06 1.18788e-05 1.48485e-05 1.78182e-05 2.07879e-05 2.37576e-05 2.67273e-05 2.9697e-05 3.26667e-05 3.56364e-05 3.86061e-05 4.15758e-05 4.45455e-05 4.75152e-05 5.04848e-05 5.34545e-05 5.64242e-05 5.93939e-05 6.23636e-05 6.53333e-05 6.8303e-05 7.12727e-05 7.42424e-05 7.72121e-05 8.01818e-05 8.31515e-05 8.61212e-05 8.90909e-05 9.20606e-05 9.50303e-05 9.8e-05 9.8e-05 9.8e-05 9.8e-05 9.8e-05 9.8e-05 9.8e-05 9.8e-05 9.8e-05 9.8e-05 9.8e-05 9.8e-05 9.8e-05 9.8e-05 9.8e-05 9.8e-05 9.8e-05 9.8e-05 9.8e-05 9.8e-05 9.8e-05 9.8e-05 9.8e-05 9.8e-05 9.8e-05 9.8e-05 9.8e-05 9.7e-05 9.6e-05 9.5e-05 9.4e-05 9.3e-05 9.2e-05 9.1e-05 9e-05 8.9e-05 8.7e-05 8.6e-05 8.5e-05 8.4e-05 8.3e-05 8.2e-05 8.1e-05 8e-05 7.9e-05 7.8e-05 7.7e-05 7.6e-05 7.5e-05 7.4e-05 7.3e-05 7.2e-05 7.1e-05 7e-05 6.9e-05 6.8e-05 6.7e-05 6.6e-05 6.5e-05 6.4e-05 6.3e-05 6.2e-05 6.1e-05 6e-05 5.9e-05 5.8e-05 5.7e-05 5.6e-05 5.5e-05 5.4e-05 5.3e-05 5.2e-05 5.1e-05 5e-05 4.9e-05 4.8e-05 4.7e-05 4.6e-05 4.5e-05 4.4e-05 4.3e-05 4.2e-05 4.1e-05 4e-05 3.9e-05 3.8e-05 3.7e-05 3.6e-05 3.5e-05 3.4e-05 3.3e-05 3.2e-05 3.1e-05 3e-05 2.9e-05 2.8e-05 2.7e-05 2.6e-05 2.5e-05 2.4e-05 2.3e-05 2.2e-05 2.1e-05 2e-05 1.9e-05 1.8e-05 1.7e-05 1.6e-05 1.5e-05 1.4e-05 1.3e-05 1.2e-05 1.1e-05 9e-06 8e-06 7e-06 6e-06 5e-06 4e-06 3e-06 2e-06 1e-06 0 0 0 0 0 0 0 0 0 0 0 0 0 0 0 0 0 0 0 0 0 0 0 0 0 0 0 2.44525e-05 3.04768e-05 3.65143e-05 4.25012e-05 4.84246e-05 5.45e-05 6.05213e-05 6.65e-05 7.24456e-05 7.8602e-05 1.85358e-05 9.64162e-05 1.58977e-06 8.35e-05 1.35795e-05 1.29093e-06 9.66415e-05 6.97754e-05 5.79093e-05 4.59653e-05 3.40852e-05 8.75e-05 9.5e-06 2.23831e-05 9.68422e-05 1.12264e-06 9.61208e-05 1.93691e-06 9.1487e-05 7.89731e-05 6.5066e-06 2.14756e-05 6.94783e-05 7.55845e-05 2.75667e-05 3.95e-05 3.3527e-05 4.56425e-05 5.75513e-05 5.15508e-05 6.36941e-05 1.03149e-06 9.69438e-05 1.28618e-05 8.76792e-05 3.58881e-06 9.46098e-05 2.0924e-06 9.61252e-05 9.63017e-05 2.01923e-06 1.56171e-06 9.66492e-05 9.67496e-05 1.24732e-06 9.70681e-05 1.03676e-06 2.81811e-05 5.19394e-05 4.00606e-05 6.38789e-05 1.15e-05 8.95e-05 1.54106e-05 8.15e-05 8.55003e-05 7.43767e-06 9.34001e-05 1.44975e-06 9.65664e-05 2.11068e-06 9.05713e-05 8.91451e-05 8.63462e-05 8.77687e-05 8.50793e-05 8.64572e-05 8.39869e-05 8.51826e-05 8.28302e-05 8.39617e-05 8.16348e-05 8.2869e-05 8.05114e-05 8.17726e-05 7.94697e-05 8.0602e-05 7.83884e-05 7.94929e-05 7.73824e-05 7.84956e-05 7.64336e-05 7.75041e-05 7.55124e-05 7.65367e-05 7.46141e-05 7.35784e-05 7.2686e-05 7.16659e-05 7.07769e-05 6.97603e-05 6.88567e-05 6.7855e-05 6.6952e-05 6.59535e-05 6.50774e-05 6.40589e-05 6.31846e-05 6.21639e-05 6.12901e-05 6.03566e-05 5.94115e-05 5.84347e-05 5.75179e-05 5.64855e-05 5.56359e-05 5.46792e-05 5.37553e-05 5.2758e-05 5.18583e-05 5.08306e-05 4.99843e-05 4.89559e-05 4.80988e-05 4.70784e-05 4.62136e-05 4.52023e-05 4.43555e-05 4.33311e-05 4.24787e-05 4.14784e-05 4.06048e-05 3.96506e-05 3.87455e-05 3.77791e-05 3.68833e-05 3.58813e-05 3.50185e-05 3.40158e-05 3.31951e-05 3.21681e-05 3.1332e-05 3.0319e-05 2.94413e-05 2.84693e-05 2.76091e-05 2.66316e-05 2.5776e-05 7.38315e-05 2.48015e-05 2.39501e-05 6.5958e-05 5.86473e-05 5.28812e-05 4.72413e-05 4.16222e-05 3.41612e-05 2.85417e-05 2.29741e-05 2.21404e-05 2.30982e-05 2.13446e-05 2.22705e-05 2.05829e-05 2.03778e-05 2.5724e-05 6.87421e-05 2.14646e-05 1.98405e-05 7.84257e-05 3.29802e-05 4.22959e-05 4.96006e-05 6.11482e-05 2.06812e-05 1.90937e-05 1.82418e-05 1.75147e-05 1.66607e-05 1.59492e-05 5.53723e-05 1.99393e-05 2.1476e-05 1.50915e-05 1.43991e-05 1.52632e-05 1.37387e-05 2.0774e-05 2.22404e-05 1.45679e-05 1.30969e-05 7.73622e-05 1.35271e-05 8.16203e-05 2.15665e-05 2.29887e-05 1.38734e-05 1.24764e-05 1.1673e-05 1.10849e-05 1.42336e-05 1.26042e-05 1.33477e-05 2.23192e-05 2.37285e-05 2.43864e-05 2.51025e-05 2.57763e-05 2.6488e-05 2.71678e-05 2.78807e-05 2.85624e-05 2.92765e-05 2.99594e-05 3.06746e-05 3.13585e-05 3.20985e-05 3.27617e-05 3.34845e-05 3.41638e-05 3.49036e-05 3.5569e-05 3.63023e-05 3.69751e-05 3.77077e-05 3.8382e-05 3.91014e-05 3.97879e-05 4.05076e-05 4.11973e-05 4.19413e-05 4.26096e-05 4.33568e-05 4.40246e-05 4.47534e-05 4.54351e-05 4.61705e-05 4.68492e-05 4.75775e-05 4.82627e-05 4.89997e-05 4.96795e-05 5.04175e-05 5.10952e-05 5.18638e-05 5.25195e-05 5.33051e-05 5.39432e-05 5.46936e-05 5.53587e-05 5.60851e-05 5.67738e-05 5.75131e-05 5.81955e-05 5.89282e-05 5.96257e-05 6.03372e-05 6.10481e-05 6.18092e-05 6.24637e-05 6.32573e-05 6.38981e-05 6.46524e-05 6.53201e-05 6.60497e-05 6.67276e-05 6.74804e-05 6.81078e-05 6.89025e-05 6.9593e-05 7.03363e-05 7.10215e-05 7.17518e-05 7.24475e-05 7.31776e-05 7.3875e-05 7.46282e-05 7.53051e-05 7.60608e-05 7.67371e-05 7.74681e-05 7.81642e-05 7.89001e-05 7.95926e-05 8.03283e-05 8.1019e-05 8.17483e-05 8.24441e-05 8.31728e-05 8.38688e-05 8.45971e-05 8.52947e-05 8.60131e-05 8.4557e-05 8.60232e-05 8.52657e-05 8.68057e-05 8.60183e-05 8.24682e-05 7.68232e-05 7.10575e-05 1.0275e-05 9.67229e-06 6.54342e-05 1.33182e-05 6.1083e-05 4.68916e-05 5.54722e-05 1.16703e-05 1.24397e-05 4.12413e-05 5.11405e-05 2.09336e-05 2.5835e-05 3.56585e-05 3.1404e-05 7.99921e-05 2.16731e-05 2.03365e-05 1.07403e-05 1.15036e-05 8.76279e-05 8.67621e-05 7.02425e-05 8.84305e-05 9.97836e-06 8.89362e-06 8.27643e-06 9.0534e-06 7.70162e-06 8.43721e-06 6.31523e-05 3.76543e-05 5.59826e-05 7.60038e-05 5.04027e-05 8.84377e-05 8.75095e-05 4.45506e-05 7.14839e-06 2.10402e-05 1.97516e-05 8.02675e-05 8.53385e-05 7.86221e-06 9.11868e-06 8.52005e-05 3.20486e-05 2.6449e-05 6.69666e-06 9.03466e-06 7.75225e-05 1.31721e-05 1.22753e-05 1.40285e-05 1.31038e-05 1.50123e-05 1.39708e-05 1.59395e-05 1.48562e-05 1.69056e-05 1.57716e-05 1.78888e-05 1.67178e-05 1.89192e-05 1.45383e-05 1.76991e-05 1.99807e-05 1.13021e-05 1.8716e-05 2.10555e-05 2.23101e-05 2.3413e-05 2.46705e-05 2.57804e-05 2.70546e-05 2.81541e-05 2.94335e-05 3.05363e-05 3.17776e-05 3.29159e-05 3.42311e-05 3.53131e-05 3.66865e-05 3.77225e-05 3.8979e-05 4.01019e-05 4.13959e-05 4.25093e-05 4.38005e-05 4.4909e-05 4.62082e-05 4.73225e-05 4.86255e-05 4.97496e-05 5.10448e-05 5.21637e-05 5.34607e-05 5.45725e-05 5.58815e-05 5.7002e-05 5.8376e-05 5.94283e-05 6.08538e-05 6.18822e-05 6.32207e-05 8.91879e-05 8.82839e-05 6.42907e-05 6.56167e-05 7.54328e-06 4.41391e-05 6.67168e-05 5.82232e-05 3.84244e-05 6.8217e-05 7.39314e-05 2.86002e-05 7.96166e-05 8.53278e-05 8.6711e-05 8.60441e-05 8.73781e-05 8.67316e-05 8.8027e-05 8.86778e-05 8.93202e-05 8.99657e-05 9.06055e-05 8.54536e-05 6.9881e-05 8.86916e-05 9.1251e-05 6.23627e-05 3.81701e-05 8.28948e-06 2.04576e-05 2.17584e-05 1.91661e-05 8.61236e-05 8.48804e-05 9.00641e-05 8.91494e-05 8.73369e-05 8.82254e-05 1.84905e-05 1.79113e-05 3.78124e-05 9.18806e-05 9.12513e-05 6.8047e-05 6.91726e-05 9.01651e-05 1.63874e-05 1.29322e-05 2.924e-05 3.67878e-05 1.74283e-05 1.50005e-05 4.6228e-05 6.4526e-05 7.29823e-05 7.25738e-05 9.06272e-05 6.60244e-05 5.88255e-05 5.32485e-05 4.7467e-05 3.48431e-05 4.05563e-05 2.93791e-05 1.99539e-05 6.27382e-06 8.58018e-06 9.78623e-06 8.76549e-05 1.95879e-05 5.23791e-05 7.93465e-05 7.84487e-05 9.24891e-05 9.19316e-05 3.07806e-05 9.12804e-05 1.98321e-05 6.49195e-05 2.57063e-05 5.74075e-05 4.7584e-05 9.18776e-05 7.33813e-06 4.27253e-05 9.62468e-06 2.47345e-05 9.30774e-05 3.14874e-05 8.5502e-05 8.43023e-05 9.31392e-05 1.72393e-05 1.6694e-05 1.73478e-05 1.61448e-05 8.63897e-05 8.72731e-05 8.91745e-05 8.81905e-05 1.54829e-05 1.49487e-05 1.43026e-05 1.37868e-05 2.39608e-05 8.07644e-05 3.66055e-05 6.61428e-06 4.3338e-05 1.79771e-05 7.04764e-05 7.1615e-05 6.92165e-05 1.49329e-05 9.09298e-05 8.36666e-05 8.30995e-05 8.24602e-05 8.19033e-05 8.12577e-05 8.07016e-05 8.00555e-05 7.95075e-05 7.88553e-05 7.82977e-05 7.76534e-05 7.70826e-05 7.64512e-05 7.58966e-05 7.52916e-05 7.47074e-05 7.41847e-05 7.35352e-05 7.29743e-05 7.23205e-05 7.16887e-05 7.11436e-05 7.04833e-05 6.99301e-05 6.93377e-05 6.87433e-05 6.81456e-05 6.75366e-05 6.69031e-05 6.63892e-05 6.57246e-05 6.51975e-05 6.44669e-05 6.39777e-05 6.33455e-05 6.27989e-05 6.21948e-05 6.16322e-05 6.09818e-05 6.04309e-05 5.98024e-05 5.92683e-05 5.86247e-05 5.80837e-05 5.74502e-05 5.69074e-05 5.62778e-05 4.84538e-05 9.26298e-05 9.19368e-05 1.52931e-05 5.5743e-05 5.51017e-05 5.45547e-05 5.39328e-05 5.34009e-05 5.27647e-05 9.2418e-06 8.06812e-06 5.3452e-05 9.01659e-05 8.91442e-05 5.57031e-05 8.11893e-05 6.05602e-05 5.2225e-05 5.15961e-05 5.10569e-05 5.04311e-05 1.60945e-05 1.36049e-05 1.25116e-05 1.1109e-05 1.00006e-05 9.24946e-05 9.1385e-05 9.36487e-05 8.06487e-06 6.33323e-06 7.08885e-06 2.30371e-05 4.98918e-05 4.92672e-05 4.87212e-05 4.81029e-05 4.75704e-05 4.69441e-05 8.74514e-05 8.0172e-05 4.88091e-05 1.85855e-05 1.67996e-05 1.04332e-05 1.09705e-05 8.37186e-05 6.7867e-05 7.54335e-06 5.91849e-06 8.69512e-05 8.25356e-05 4.64077e-05 4.57846e-05 4.52596e-05 4.46291e-05 4.40997e-05 4.34735e-05 7.41792e-05 8.49317e-05 8.60914e-05 9.18405e-05 7.65215e-05 4.29395e-05 4.23185e-05 4.17856e-05 4.11643e-05 4.28886e-05 4.5135e-05 1.60335e-05 1.44223e-05 1.32948e-05 6.26931e-05 5.66564e-05 6.82083e-05 4.0634e-05 4.00156e-05 3.9502e-05 3.88654e-05 3.93851e-05 3.82184e-05 3.76894e-05 3.70796e-05 3.65144e-05 3.58419e-05 3.53263e-05 3.46773e-05 3.41432e-05 3.34854e-05 3.29793e-05 3.23062e-05 3.17946e-05 3.11485e-05 3.06308e-05 3.00202e-05 2.94717e-05 2.88035e-05 2.82964e-05 2.76619e-05 2.71354e-05 2.65056e-05 2.59924e-05 2.53519e-05 2.48218e-05 8.62502e-06 7.57476e-06 8.91722e-06 7.2917e-05 7.40581e-05 7.27482e-05 7.52732e-05 7.40235e-05 6.81537e-06 5.24675e-06 7.05517e-05 1.7215e-05 9.30809e-05 9.11813e-05 9.01233e-05 3.40552e-05 9.2714e-05 1.19218e-05 8.71813e-06 7.56726e-06 9.3291e-05 9.26291e-05 8.55079e-05 8.45404e-05 2.42199e-05 2.36795e-05 2.49275e-05 6.46071e-05 9.42002e-05 6.23038e-05 3.48206e-05 9.41899e-05 2.68607e-05 5.08895e-05 6.98756e-05 5.91203e-05 9.06154e-05 8.21988e-05 2.89667e-05 1.48112e-05 1.36459e-05 5.87199e-05 9.70491e-06 5.30561e-06 6.09567e-06 5.28562e-05 7.82389e-05 9.25868e-05 7.66787e-05 7.75963e-05 7.58605e-05 7.93161e-05 7.84846e-05 8.01624e-05 6.62043e-05 4.70289e-05 7.2124e-05 3.05373e-05 1.79641e-05 5.0163e-06 7.53372e-05 5.6414e-05 9.24512e-05 9.11154e-05 1.9257e-05 9.0504e-05 3.71533e-05 6.92256e-06 6.42704e-06 5.78547e-06 5.30074e-06 4.65851e-06 4.18134e-06 3.52946e-06 4.01512e-06 3.07355e-06 1.98133e-05 3.24565e-05 7.58557e-05 7.16875e-06 6.55897e-06 7.89335e-06 8.099e-05 9.40231e-05 1.74294e-05 1.85599e-05 7.6538e-05 8.06148e-05 8.40296e-06 1.01795e-05 9.16712e-06 6.94902e-06 8.18019e-06 6.0467e-06 8.22098e-06 7.53597e-05 3.75734e-05 6.10706e-06 4.67337e-06 1.7797e-05 1.65597e-05 1.62874e-05 5.04997e-05 4.8177e-06 9.41795e-05 9.33188e-05 9.1853e-05 9.26061e-05 4.5548e-06 8.55064e-05 8.66741e-05 8.72377e-05 8.78099e-05 8.42975e-05 8.8367e-05 8.89337e-05 4.12759e-05 1.73693e-05 1.8384e-05 7.14731e-05 5.18778e-06 2.54907e-05 8.89712e-05 9.00093e-05 8.30214e-05 5.43239e-06 4.04038e-06 4.84894e-06 9.21006e-05 9.10911e-05 9.34112e-05 9.2412e-05 1.7063e-05 4.35722e-05 7.51265e-05 2.30762e-05 2.25244e-05 2.31479e-05 7.38252e-06 5.14797e-06 9.30088e-06 7.86664e-06 7.42201e-05 8.17935e-05 9.38277e-06 2.83776e-06 3.35764e-06 9.35667e-05 9.47273e-05 9.34693e-05 9.27163e-05 4.52245e-06 3.83382e-06 2.70811e-06 3.15927e-06 3.39124e-06 3.5557e-06 1.69077e-05 1.15809e-05 1.10346e-05 8.25266e-05 4.94399e-06 8.94735e-05 9.00334e-05 1.39129e-05 1.27268e-05 3.6712e-06 9.41191e-05 2.19032e-05 2.14041e-05 4.33413e-06 2.00872e-06 2.11162e-05 2.24457e-05 9.36166e-05 9.25491e-05 1.1214e-05 7.93599e-05 7.7634e-05 8.83681e-05 1.21215e-05 1.1513e-05 8.37704e-05 8.48188e-05 1.59249e-05 8.27728e-05 8.35633e-05 8.16546e-05 7.77229e-05 9.47077e-05 9.53014e-05 9.58417e-05 8.04989e-06 1.07264e-05 5.91184e-06 1.28125e-05 9.42619e-05 7.9278e-05 7.85878e-05 8.62914e-05 1.40987e-05 1.29083e-05 1.19424e-05 8.77992e-05 3.95274e-06 3.69352e-06 4.98054e-06 2.8243e-06 1.04045e-05 1.50476e-05 1.45326e-05 9.30573e-05 1.46247e-05 9.10399e-05 9.0209e-05 8.29545e-05 8.7699e-05 8.68368e-05 8.44778e-05 7.49476e-05 7.41684e-05 7.50539e-05 7.33846e-05 7.24894e-05 7.17247e-05 7.08286e-05 7.00839e-05 6.91757e-05 6.84333e-05 6.75244e-05 6.6783e-05 6.58751e-05 6.51348e-05 6.42283e-05 6.34795e-05 6.25829e-05 6.18287e-05 6.09399e-05 6.02031e-05 5.93689e-05 5.85797e-05 5.7689e-05 5.69302e-05 5.60347e-05 5.52947e-05 5.44055e-05 5.36658e-05 5.27952e-05 5.20434e-05 5.11695e-05 5.50029e-05 5.04208e-05 4.95346e-05 5.02559e-05 4.88076e-05 4.79163e-05 4.71873e-05 4.63063e-05 6.10499e-05 4.55726e-05 4.46963e-05 4.3964e-05 4.30896e-05 4.23693e-05 4.14925e-05 4.3765e-05 6.76934e-05 4.07195e-05 3.98854e-05 3.90901e-05 3.82816e-05 3.75513e-05 3.66935e-05 3.60319e-05 3.5117e-05 3.5831e-05 3.45203e-05 3.35463e-05 7.4274e-05 3.93009e-05 3.28888e-05 3.19346e-05 3.26222e-05 3.10307e-05 3.03046e-05 2.94066e-05 2.86904e-05 2.77888e-05 2.70788e-05 2.79654e-05 6.82702e-05 3.16454e-05 2.62009e-05 2.54796e-05 6.00438e-05 7.15787e-05 6.43757e-05 2.71057e-05 7.09765e-05 5.45547e-05 6.50073e-05 4.70363e-05 4.32317e-05 7.59498e-05 5.79118e-05 9.18274e-05 8.28874e-05 8.36957e-05 1.90824e-05 1.9693e-05 1.91624e-05 2.01652e-05 1.69281e-05 6.26025e-05 7.63529e-05 7.78472e-05 8.64481e-05 8.47946e-05 8.19497e-05 8.35011e-05 2.72705e-06 3.59005e-05 3.97279e-05 4.07239e-05 3.59789e-05 3.54126e-05 3.4247e-05 3.65616e-05 3.7768e-05 3.36179e-05 3.30501e-05 3.1943e-05 3.49488e-05 5.16571e-05 5.21608e-05 5.34009e-05 4.24301e-05 6.05734e-05 5.75586e-05 5.81237e-05 5.92688e-05 5.70288e-05 5.59482e-05 5.52361e-05 5.85823e-05 5.40172e-05 6.60386e-05 6.41529e-05 6.93322e-05 6.85924e-05 6.34515e-05 6.40631e-05 6.52915e-05 6.46362e-05 6.29435e-05 6.19299e-05 6.11439e-05 5.9975e-05 6.0528e-05 6.6964e-05 6.57755e-05 6.35235e-05 6.47368e-05 6.69349e-05 6.25182e-05 6.13035e-05 6.03437e-05 5.9121e-05 5.83032e-05 5.95543e-05 5.74944e-05 5.65488e-05 6.5864e-05 6.79478e-05 6.9059e-05 7.02151e-05 7.12074e-05 7.21749e-05 7.32555e-05 7.20616e-05 6.17114e-05 6.37991e-05 6.93765e-05 6.88395e-05 6.77013e-05 6.8379e-05 6.99887e-05 7.1127e-05 7.05497e-05 6.7064e-05 6.65143e-05 6.58764e-05 7.5346e-05 7.47874e-05 7.3635e-05 7.41393e-05 7.59598e-05 7.70993e-05 7.6568e-05 7.75581e-05 7.8372e-05 7.30211e-05 7.2438e-05 7.1767e-05 8.94056e-05 8.90645e-05 8.76337e-05 2.43091e-05 5.94979e-05 4.5515e-05 4.62531e-05 4.75854e-05 4.69612e-05 4.49206e-05 4.35058e-05 4.26795e-05 4.19815e-05 4.05615e-05 4.12411e-05 5.6849e-05 5.75677e-05 5.89706e-05 5.62212e-05 5.48949e-05 5.4118e-05 5.35729e-05 5.25292e-05 5.24154e-05 7.82178e-05 7.89028e-05 7.7569e-05 7.63556e-05 7.5406e-05 7.44632e-05 7.32479e-05 3.70345e-05 3.64897e-05 3.49444e-05 3.42241e-05 3.28291e-05 3.215e-05 3.08025e-05 3.00111e-05 2.93568e-05 2.79314e-05 2.8702e-05 2.71826e-05 2.65515e-05 2.51569e-05 6.6823e-05 6.75302e-05 6.89482e-05 6.81973e-05 6.61367e-05 6.48007e-05 6.40654e-05 6.36866e-05 6.26009e-05 6.1544e-05 6.03567e-05 6.08381e-05 6.45006e-05 5.48021e-05 5.35925e-05 5.13559e-05 5.251e-05 5.0396e-05 5.16026e-05 5.354e-05 4.89886e-05 4.82984e-05 5.26487e-05 4.51222e-05 4.39993e-05 4.17196e-05 4.29606e-05 4.07779e-05 4.5064e-05 4.40981e-05 4.5949e-05 3.95081e-05 3.8631e-05 3.98261e-05 3.77061e-05 3.65314e-05 3.56459e-05 3.44257e-05 3.53252e-05 3.3262e-05 3.23337e-05 3.11631e-05 3.02277e-05 2.89087e-05 2.81018e-05 2.67603e-05 2.59903e-05 2.47475e-05 2.39158e-05 2.27248e-05 2.19255e-05 2.29736e-05 2.10272e-05 2.35942e-05 2.72446e-05 3.15929e-05 3.9041e-05 3.40118e-05 8.13485e-05 8.08042e-05 7.96416e-05 8.01753e-05 8.19898e-05 8.31219e-05 8.25904e-05 7.89433e-05 7.9184e-05 6.96784e-05 7.03916e-05 7.19e-05 2.83431e-05 8.10492e-05 8.17822e-05 8.39005e-05 8.46951e-05 8.98836e-05 9.0766e-05 8.37696e-05 8.4715e-05 8.37148e-05 3.36424e-05 4.19924e-05 7.25955e-05 9.87539e-06 1.04793e-05 1.15682e-05 9.46056e-05 2.30486e-05 2.23766e-05 2.30722e-05 2.37785e-05 3.69866e-06 2.61349e-06 2.30858e-05 8.72751e-05 7.60252e-06 8.90012e-05 3.13068e-05 3.01401e-05 2.95771e-05 2.84803e-05 2.7813e-05 2.66359e-05 2.6076e-05 2.63869e-05 2.47973e-05 5.57142e-05 4.5358e-05 4.34967e-05 2.9588e-05 4.58857e-05 4.64879e-05 4.77757e-05 4.47262e-05 4.41164e-05 4.01209e-05 4.06382e-05 3.89613e-05 3.83232e-05 3.84163e-05 4.9383e-05 4.99758e-05 4.82415e-05 4.65329e-05 5.10201e-05 4.91859e-05 5.6697e-05 5.48277e-05 5.75429e-05 2.20673e-05 2.27456e-05 8.81934e-05 1.80159e-05 5.56026e-05 1.68114e-05 1.83764e-05 1.76813e-05 1.8512e-05 1.61073e-05 3.71697e-06 2.63009e-06 1.95354e-06 4.97459e-05 5.04707e-05 4.91163e-05 4.98565e-05 8.94922e-05 9.05391e-05 4.83194e-05 3.34942e-05 3.28579e-05 2.44417e-05 1.01727e-05 3.11922e-05 7.2511e-05 9.19522e-05 9.31019e-05 9.46816e-05 5.93048e-06 5.44755e-06 7.06232e-06 7.61917e-06 5.22131e-05 1.03626e-05 2.48199e-05 7.67543e-05 9.64626e-05 1.70279e-06 9.6878e-05 9.5735e-05 9.57676e-05 9.4616e-05 9.44834e-05 9.54361e-05 9.58105e-05 9.18721e-06 1.01761e-05 9.20132e-05 5.98837e-05 2.5262e-05 2.67194e-05 2.95439e-05 2.81066e-05 3.09474e-05 3.24872e-05 3.37358e-05 2.53914e-05 2.6412e-05 2.93821e-05 2.3839e-05 1.56017e-05 9.69725e-05 6.68149e-05 6.53432e-05 6.25144e-05 6.40055e-05 6.13871e-05 5.98598e-05 5.87742e-05 6.66698e-05 6.8266e-05 3.71113e-05 3.8594e-05 4.14249e-05 3.99869e-05 4.27303e-05 3.7269e-05 4.43523e-05 4.55217e-05 3.55691e-05 4.89904e-05 5.04728e-05 5.33038e-05 5.16141e-05 4.91475e-05 5.44066e-05 5.58191e-05 4.74937e-05 3.81787e-05 7.39117e-05 1.28702e-05 1.1401e-05 5.11963e-05 9.71027e-06 1.08932e-05 3.98281e-05 3.92051e-05 4.14147e-05 4.95594e-05 8.11574e-05 4.11977e-05 9.09669e-05 7.95656e-05 2.32685e-06 1.68074e-06 9.09474e-07 4.04163e-05 4.99963e-05 9.63491e-05 9.46431e-05 1.71133e-06 3.40758e-06 9.6502e-05 9.66576e-05 1.83771e-06 1.25542e-06 2.43496e-06 9.67197e-05 9.6202e-05 9.43859e-05 1.16238e-06 6.25432e-05 5.96498e-05 9.58487e-05 9.69149e-05 9.59611e-05 2.09727e-06 7.29625e-05 4.01225e-06 7.18434e-05 9.70091e-05 9.34325e-05 6.16755e-06 5.88865e-06 9.67617e-05 9.55092e-05 1.96321e-05 1.86547e-05 1.93725e-05 1.75302e-05 1.82658e-05 1.5788e-05 1.39172e-05 5.59256e-06 8.50146e-05 7.99962e-05 8.07274e-05 4.43064e-06 9.11794e-05 9.34261e-05 9.25304e-05 8.67683e-05 8.88028e-05 1.95636e-05 5.48084e-05 4.29874e-05 6.09867e-05 3.11102e-05 8.65616e-05 6.26805e-06 9.59319e-05 4.65577e-05 5.626e-06 3.99483e-05 2.01052e-05 6.96494e-06 8.1422e-05 1.69416e-05 9.51002e-05 6.7852e-05 8.73474e-05 7.77194e-05 8.01491e-05 4.41543e-06 7.56902e-05 1.85506e-05 1.69672e-05 8.03091e-05 9.47719e-05 1.22767e-05 9.36894e-05 2.14464e-05 1.89165e-05 2.22491e-05 5.41689e-05 4.32126e-06 9.3142e-05 2.10834e-05 2.38634e-05 1.13898e-05 2.11628e-05 7.63696e-05 7.51427e-05 7.64881e-05 2.58783e-05 8.35521e-05 9.56489e-05 4.44644e-05 2.3672e-05 6.83336e-06 3.08876e-05 6.796e-05 5.84591e-05 4.64122e-06 2.50778e-06 8.43653e-06 1.05e-05 9.04992e-05 8.85e-05 1.25802e-05 8.64559e-05 8.45496e-05 8.25e-05 1.64225e-05 1.74859e-05 7.35142e-05 3.14771e-05 3.24995e-05 3.76056e-05 5.05044e-05 5.55e-05 5.65047e-05 6.15e-05 4.36945e-06 5.32358e-05 3.06072e-05 7.18441e-05 1.21685e-05 5.09292e-05 2.57901e-06 9.54871e-05 5.10581e-05 7.12727e-05 7.77562e-05 8.32069e-05 1.05439e-05 9.14536e-05 3.57509e-05 7.59713e-05 6.03584e-05 1.60256e-05 2.23528e-06 4.85902e-05 3.73853e-05 6.53157e-05 8.62326e-05 6.24706e-06 5.13946e-06 7.32621e-05 8.05493e-05 3.78683e-05 7.39963e-06 8.05e-05 9.78165e-06 8.89274e-05 1.09217e-05 1.21918e-05 9.54368e-05 1.57963e-05 8.14781e-05 8.31358e-05 4.20495e-05 3.11694e-05 6.33365e-05 1.89394e-05 3.42133e-05 8.18273e-05 3.48256e-05 8.54111e-05 1.90573e-05 7.70206e-05 7.94134e-05 7.08727e-05 6.66208e-05 6.99468e-05 6.16399e-05 3.75889e-05 4.54252e-05 4.05505e-05 5.78354e-05 5.22065e-05 4.42122e-05 4.79449e-05 7.44802e-05 8.66836e-05 6.29668e-05 7.14557e-05 6.68803e-05 9.57e-07 7.06461e-05 6.45778e-05 5.746e-05 8.42378e-05 4.89325e-05 4.96554e-05 3.90766e-05 3.62488e-05 3.33284e-05 3.08719e-05 7.03102e-05 2.79224e-05 1.0338e-05 5.35e-05 4.58711e-05 5.8e-05 7.45069e-05 3.40365e-05 2.07963e-05 1.8015e-05 6.7596e-05 4.94853e-05 6.22247e-05 5.62239e-05 7.00813e-05 2.33634e-06 2.50577e-05 1.21325e-05 1.53454e-05 1.37437e-05 9.00789e-05 9.12289e-05 1.42671e-05 8.80891e-05 8.8837e-05 1.97666e-05 1.47259e-05 7.18112e-05 1.57165e-05 5.46545e-05 5.25372e-05 2.05264e-05 2.8076e-06 9.04428e-06 7.952e-05 2.93993e-05 2.38399e-05 1.95641e-05 6.29069e-05 1.99797e-05 2.55089e-05 2.94413e-05 4.14357e-05 6.17791e-05 5.36537e-05 8.80394e-05 6.54184e-05 3.86998e-05 4.17607e-05 1.10021e-05 9.1815e-05 1.5331e-05 5.46176e-05 4.35251e-05 5.28747e-05 2.23418e-05 5.18586e-05 5.95344e-05 2.01528e-05 8.25778e-05 1.83611e-05 9.71974e-05 8.02622e-07 8.59124e-05 3.77739e-06 1.26953e-05 4.8881e-05 7.75224e-05 8.25157e-05 3.16337e-05 1.58662e-05 4.81012e-05 4.24723e-05 2.38045e-05 9.48592e-05 4.63445e-05 4.56798e-05 8.82462e-06 7.75184e-05 9.00424e-05 2.74619e-05 1.21299e-05 1.70178e-05 9.3029e-05 2.49501e-05 9.45593e-05 2.50803e-05 1.09291e-05 9.98382e-06 2.84977e-05 6.76651e-06 8.59786e-06 1.69603e-06 9.56084e-05 3.5432e-05 4.069e-05 7.53563e-05 4.75873e-05 2.65759e-05 7.6525e-05 4.40078e-05 2.39223e-05 8.25696e-06 2.20355e-05 9.1532e-05 6.72725e-05 1.34525e-05 4.83463e-05 9.52163e-05 1.90573e-05 4.30236e-05 2.7304e-05 1.31939e-05 4.59479e-05 8.93239e-05 6.89762e-05 1.45045e-05 9.00387e-05 5.12949e-06 1.64601e-05 8.85721e-06 2.46065e-05 2.18748e-06 9.46638e-05 9.62675e-05 2.71757e-05 9.41467e-05 7.4599e-05 2.0887e-05 4.73647e-05 7.30013e-05 5.57026e-06 8.47408e-05 1.11466e-05 3.83459e-05 1.19831e-06 1.31845e-06 9.58982e-06 1.34019e-05 8.423e-05 8.44726e-05 3.67597e-06 9.65947e-07 4.48799e-05 2.0945e-05 4.19746e-05 3.59683e-05 1.03618e-05 4.6499e-05 2.93471e-05 9.46472e-05 3.68954e-05 7.85221e-05 3.25035e-05 4.71339e-05 6.59115e-05 4.52665e-05 9.09866e-05 5.55489e-05 4.77506e-05 3.98672e-05 4.45655e-05 2.66392e-05 1.74279e-06 3.27087e-06 7.13898e-05 2.55555e-05 5.97967e-05 2.34269e-05 6.72579e-05 3.33557e-05 7.68238e-05 4.32601e-05 4.91446e-06 3.23828e-05 9.51225e-05 1.25486e-05 9.23211e-05 9.35913e-05 4.98507e-05 6.55254e-05 2.11952e-05 2.37221e-05 5.44465e-05 4.20449e-05 3.50066e-05 2.35455e-05 6.9447e-05 2.29202e-06 2.24546e-05 7.97566e-05 2.85967e-05 7.04836e-05 8.15619e-05 5.67013e-05 9.04079e-05 7.51246e-06 2.99714e-05 5.15336e-05 2.17704e-05 3.20011e-05 2.05498e-05 6.1809e-05 2.95998e-05 3.5441e-05 2.2456e-05 9.38845e-05 9.57548e-05 3.57875e-05 2.09892e-05 1.5675e-05 2.44603e-05 5.13917e-05 9.44704e-05 1.73882e-06 5.82915e-05 7.51663e-05 1.20363e-05 5.69658e-05 3.91746e-05 6.01079e-05 4.44652e-05 7.48423e-05 6.26566e-05 9.45157e-05 9.65239e-05 6.71281e-05 6.84907e-05 8.53113e-05 2.02597e-06 5.6955e-05 6.51323e-06 4.05148e-05 2.74333e-05 2.86015e-06 3.68313e-05 3.38447e-05 5.38531e-06 9.51436e-05 5.6472e-05 6.2763e-06 8.94878e-05 6.6839e-05 2.72901e-05 4.26592e-05 3.65738e-05 9.7268e-05 7.31983e-07 7.37673e-05 2.79251e-05 3.95959e-05 4.42337e-05 4.12643e-05 2.56483e-05 5.56254e-05 9.10238e-06 3.87544e-05 5.72617e-06 7.84019e-05 4.60913e-05 2.18198e-05 1.19321e-05 8.2403e-05 2.97716e-05 7.03441e-07 4.31084e-05 3.20877e-05 3.42901e-05 5.46472e-05 3.75009e-06 9.55858e-05 6.53782e-05 6.52302e-05 7.3466e-05 9.37351e-05 3.56501e-05 5.15302e-05 1.20628e-05 2.97997e-05 8.01519e-05 2.72127e-05 2.59048e-05 9.19918e-05 2.57864e-05 4.49769e-05 5.86584e-05 4.27101e-06 3.28138e-05 3.73246e-05 5.39873e-05 3.04391e-05 5.5e-06 1.02628e-05 4.66736e-05 9.63858e-05 7.30237e-05 6.12073e-05 7.8771e-05 2.88343e-05 8.98601e-05 8.90448e-05 6.45254e-05 5.99631e-05 9.00033e-05 3.97718e-06 5.28916e-05 5.74189e-05 8.63883e-05 7.29113e-05 1.29724e-05 8.23187e-05 3.49749e-05 3.31763e-06 4.10478e-05 7.4779e-05 5.08103e-05 3.85e-05 6.35305e-05 4.27425e-06 9.39453e-05 4.06904e-05 1.99679e-05 6.35582e-05 7.18268e-05 1.45601e-05 8.20031e-05 5.59624e-05 6.89788e-05 4.95167e-05 5.37823e-05 1.79595e-06 7.83362e-05 3.03519e-06 6.95937e-05 1.77258e-05 4.34678e-05 6.68903e-05 9.53408e-05 5.96814e-05 9.27321e-05 9.10045e-05 7.35571e-05 1.61669e-05 3.5494e-06 3.25358e-06 7.54266e-05 3.54752e-05 7.14687e-05 7.02136e-05 5.42935e-05 9.01883e-05 4.73242e-05 6.9997e-05 8.20427e-05 5.79096e-05 8.55031e-05 5.40138e-05 1.45332e-05